GLA_GLM_Na_HOH35ADroplet
 2450
    1SOL     OW    1  49.617  50.789  51.494  0.0252 -0.1066  0.0640
    1SOL    HW1    2  49.525  50.760  51.471  1.4181  0.2126  1.8219
    1SOL    HW2    3  49.653  50.711  51.532 -1.1838  1.8744 -0.0882
    2SOL     OW    4  51.254  50.865  50.202  0.2354  0.2005 -0.0957
    2SOL    HW1    5  51.310  50.905  50.132 -0.3308 -0.8095  1.3496
    2SOL    HW2    6  51.316  50.852  50.278 -0.7874 -0.3391  0.9891
    3SOL     OW    7  50.731  48.882  49.650  0.4340  0.2312  0.4554
    3SOL    HW1    8  50.772  48.801  49.607 -0.5224  1.2467  1.4687
    3SOL    HW2    9  50.705  48.848  49.734  0.7273 -0.9736 -0.3410
    4SOL     OW   10  49.924  51.176  49.857 -0.0162 -0.5347 -0.4356
    4SOL    HW1   11  49.995  51.238  49.887  0.6140 -1.4180  0.7351
    4SOL    HW2   12  49.975  51.096  49.822  0.7393  0.2902  0.7911
    5SOL     OW   13  48.869  48.846  49.639  0.7872  0.3329  0.3259
    5SOL    HW1   14  48.820  48.846  49.555  0.2556  1.8810  2.7889
    5SOL    HW2   15  48.794  48.857  49.704  0.8125 -0.6408  1.9920
    6SOL     OW   16  49.794  51.328  50.371  0.2024 -0.0099 -0.4387
    6SOL    HW1   17  49.715  51.358  50.323  0.1200  0.0335  1.6491
    6SOL    HW2   18  49.762  51.250  50.423  0.9952  1.1669  1.4468
    7SOL     OW   19  49.494  49.644  50.314  0.2463  0.1971  0.4503
    7SOL    HW1   20  49.446  49.580  50.255  0.5289 -0.4642 -0.8263
    7SOL    HW2   21  49.514  49.722  50.259 -0.7633  0.5682  0.1926
    8SOL     OW   22  49.446  50.881  49.029 -0.0858 -0.1244  0.5546
    8SOL    HW1   23  49.420  50.959  48.975  0.6980 -1.1286 -0.2307
    8SOL    HW2   24  49.541  50.893  49.048 -0.7028 -1.4777 -1.5573
    9SOL     OW   25  50.956  50.659  49.374  0.2679  0.2038 -0.1578
    9SOL    HW1   26  50.931  50.723  49.305  0.5619 -0.8935  1.1891
    9SOL    HW2   27  50.935  50.575  49.332  4.4584 -0.0813 -1.0904
   10SOL     OW   28  50.175  49.861  51.360  0.2943  0.4004 -0.5066
   10SOL    HW1   29  50.214  49.903  51.284 -0.8297  1.0376 -1.0968
   10SOL    HW2   30  50.143  49.936  51.418  1.2935 -2.8079 -1.6116
   11SOL     OW   31  48.920  50.484  50.044  0.0666 -0.2935  0.3441
   11SOL    HW1   32  48.855  50.503  49.972  2.2217 -2.3156  0.4419
   11SOL    HW2   33  49.002  50.485  49.996  0.9199  1.7596 -0.2401
   12SOL     OW   34  48.474  49.867  49.143  0.0672 -0.0366  0.0125
   12SOL    HW1   35  48.472  49.920  49.226  0.7262 -1.2602  1.5556
   12SOL    HW2   36  48.437  49.779  49.167  0.8401  0.5429 -0.3619
   13SOL     OW   37  49.544  49.295  50.728 -0.3534 -0.5353  0.0426
   13SOL    HW1   38  49.500  49.213  50.758  0.5795  0.4368  1.1339
   13SOL    HW2   39  49.488  49.366  50.765 -1.2578  0.0927 -0.5216
   14SOL     OW   40  48.573  49.282  49.541 -0.0829 -0.0286  0.2526
   14SOL    HW1   41  48.495  49.334  49.508  2.4527 -1.2902 -0.4635
   14SOL    HW2   42  48.631  49.276  49.459  0.3305  0.1400 -0.5773
   15SOL     OW   43  49.105  48.638  50.613  0.2344 -0.1903 -0.2524
   15SOL    HW1   44  49.163  48.680  50.677 -1.3503 -0.9079 -2.3165
   15SOL    HW2   45  49.162  48.587  50.554  0.7633 -1.2377  1.4156
   16SOL     OW   46  49.760  51.177  48.888 -0.0014 -0.3865  0.2138
   16SOL    HW1   47  49.705  51.142  48.812  0.3095  0.5363  0.3019
   16SOL    HW2   48  49.849  51.202  48.850 -1.1751  2.0250  1.2202
   17SOL     OW   49  50.596  49.447  51.255 -0.6982 -0.1506  0.1613
   17SOL    HW1   50  50.645  49.387  51.202 -3.0957  1.4628  2.3768
   17SOL    HW2   51  50.539  49.386  51.305  0.2787  0.4311 -1.5674
   18SOL     OW   52  49.630  50.922  50.936 -0.3768 -0.5978 -1.0839
   18SOL    HW1   53  49.707  50.988  50.926 -0.5074 -1.2019 -0.8663
   18SOL    HW2   54  49.584  50.959  51.014 -0.4466  1.2619 -0.2151
   19SOL     OW   55  50.436  50.065  49.878 -0.1808  0.2514  0.8863
   19SOL    HW1   56  50.422  49.983  49.926 -1.2639 -0.0294 -1.1377
   19SOL    HW2   57  50.344  50.088  49.866  0.8657  0.1029  2.5704
   20SOL     OW   58  49.548  50.073  51.320  0.5366  0.3800 -0.3339
   20SOL    HW1   59  49.468  50.035  51.271  1.1894 -0.5201 -0.7776
   20SOL    HW2   60  49.595  49.989  51.345  1.3149  0.3929  0.0968
   21SOL     OW   61  50.013  50.941  51.090 -0.0399  0.0931 -1.2013
   21SOL    HW1   62  49.979  50.874  51.154  1.3997  0.0651 -1.8672
   21SOL    HW2   63  50.091  50.982  51.137 -0.0819 -0.8619  0.0704
   22SOL     OW   64  49.485  50.906  49.641  0.4295  0.4587 -0.0584
   22SOL    HW1   65  49.407  50.951  49.608  1.5482 -2.9527  0.4660
   22SOL    HW2   66  49.452  50.854  49.719  0.8797  1.7849 -1.3641
   23SOL     OW   67  50.463  48.756  49.055 -0.1699  0.3494  0.5361
   23SOL    HW1   68  50.447  48.672  49.100  1.2888  1.1274 -0.7302
   23SOL    HW2   69  50.559  48.775  49.072 -2.3895 -0.1711  1.3273
   24SOL     OW   70  50.354  50.061  51.636  0.1647  0.2827  0.1958
   24SOL    HW1   71  50.413  49.983  51.641 -2.2764 -1.0825 -3.0967
   24SOL    HW2   72  50.391  50.101  51.556  0.1912 -0.7490  0.8465
   25SOL     OW   73  50.236  48.509  49.642  0.2757  0.5015 -0.0901
   25SOL    HW1   74  50.142  48.540  49.657 -1.7638 -0.9979 -0.5209
   25SOL    HW2   75  50.289  48.547  49.719  0.0051 -0.4694  0.0185
   26SOL     OW   76  49.395  50.648  51.380 -0.7131 -0.4992 -0.2415
   26SOL    HW1   77  49.408  50.554  51.375 -1.0636  0.2547 -2.0358
   26SOL    HW2   78  49.301  50.658  51.364  0.3375 -0.6233 -1.5097
   27SOL     OW   79  49.597  50.253  48.805 -0.0825  0.4194 -0.1311
   27SOL    HW1   80  49.511  50.233  48.769  1.1914  0.0336  1.4038
   27SOL    HW2   81  49.622  50.169  48.842 -1.8248  2.1368  0.5999
   28SOL     OW   82  49.678  49.923  50.875 -0.1030  0.7571 -0.4863
   28SOL    HW1   83  49.750  49.989  50.845  0.3226  1.7779 -1.5314
   28SOL    HW2   84  49.717  49.872  50.949 -0.1665 -0.0808 -1.1993
   29SOL     OW   85  51.475  50.080  49.482  0.4530  0.1829 -0.3920
   29SOL    HW1   86  51.546  50.100  49.544 -0.3030  1.9230 -3.0238
   29SOL    HW2   87  51.506  50.139  49.410  0.8008 -0.5095 -1.1164
   30SOL     OW   88  50.294  50.172  48.471 -0.0050 -0.1568  0.1199
   30SOL    HW1   89  50.362  50.244  48.455  0.0866 -0.2482  0.1803
   30SOL    HW2   90  50.297  50.112  48.389  1.6467  0.3730 -1.9569
   31SOL     OW   91  50.083  51.600  49.269  0.5957  0.0636  0.2758
   31SOL    HW1   92  50.043  51.643  49.194  0.9641 -0.2045  1.0285
   31SOL    HW2   93  50.069  51.506  49.257 -0.1491  1.2421  1.0158
   32SOL     OW   94  49.982  50.788  51.444 -0.7476 -0.0128 -0.8197
   32SOL    HW1   95  50.062  50.841  51.429 -2.4305 -1.4959 -0.0477
   32SOL    HW2   96  49.921  50.847  51.488 -0.6425  0.1170 -0.3600
   33SOL     OW   97  50.930  50.843  49.878 -0.0981  0.0521  0.3981
   33SOL    HW1   98  50.951  50.759  49.835 -0.4779 -0.4475  0.6845
   33SOL    HW2   99  51.015  50.891  49.876 -0.7676 -1.7710 -0.9579
   34SOL     OW  100  49.661  49.249  49.833  0.3476 -0.0907  0.2090
   34SOL    HW1  101  49.697  49.242  49.923 -2.8882 -0.2306 -1.8171
   34SOL    HW2  102  49.610  49.332  49.839  1.7587 -0.0920  0.6877
   35SOL     OW  103  50.408  49.031  48.929 -0.0505 -0.1913  0.3314
   35SOL    HW1  104  50.491  49.065  48.966 -1.5383 -0.2873  1.9925
   35SOL    HW2  105  50.406  48.939  48.962 -0.3622  0.8709  0.8596
   36SOL     OW  106  49.089  50.331  51.305 -0.1854 -0.7385 -0.1482
   36SOL    HW1  107  49.154  50.341  51.228 -0.4064 -1.8833  1.0886
   36SOL    HW2  108  49.161  50.335  51.375  1.4097  0.5791 -1.1036
   37SOL     OW  109  49.088  49.729  49.811  0.0014  0.0782  0.3860
   37SOL    HW1  110  49.107  49.635  49.796 -1.0061  1.1744  0.9756
   37SOL    HW2  111  49.139  49.746  49.892  0.9010 -0.2496 -2.4010
   38SOL     OW  112  50.355  51.391  50.977 -0.2016  0.4593 -0.0003
   38SOL    HW1  113  50.399  51.416  51.057 -1.0227 -0.7147 -1.2566
   38SOL    HW2  114  50.271  51.363  51.009  0.8466  0.7433 -0.0117
   39SOL     OW  115  48.426  50.490  50.555  0.2192 -0.1787  0.1104
   39SOL    HW1  116  48.412  50.569  50.501  0.6960  0.7523 -0.9830
   39SOL    HW2  117  48.378  50.417  50.505 -0.1339  0.5010 -2.3299
   40SOL     OW  118  50.248  48.307  49.417 -0.0063  0.2550  0.0471
   40SOL    HW1  119  50.176  48.246  49.430  1.5143  0.0239  1.2493
   40SOL    HW2  120  50.247  48.361  49.497  0.0188  0.8056  1.0315
   41SOL     OW  121  51.046  48.919  49.571  0.0149 -0.4971  0.1998
   41SOL    HW1  122  50.971  48.959  49.613  0.6448 -1.0592  2.2914
   41SOL    HW2  123  51.053  48.832  49.614 -1.5928  0.0251 -1.4267
   42SOL     OW  124  49.694  51.638  49.982  0.2645 -0.3973 -0.3473
   42SOL    HW1  125  49.750  51.621  49.903 -1.7693 -2.4568  0.2612
   42SOL    HW2  126  49.643  51.554  49.991 -0.9083  0.6867  0.6306
   43SOL     OW  127  49.590  49.900  48.724  0.1579 -0.1279  0.3173
   43SOL    HW1  128  49.598  49.843  48.647 -0.0305  0.3958  0.7667
   43SOL    HW2  129  49.519  49.964  48.699  0.5816 -0.6550  0.4492
   44SOL     OW  130  50.665  48.845  49.947 -0.3468  0.4129  0.2590
   44SOL    HW1  131  50.661  48.943  49.936  0.1784 -1.0912  1.5103
   44SOL    HW2  132  50.581  48.839  49.993  1.2758  2.2354 -1.3600
   45SOL     OW  133  50.634  51.000  48.941 -0.5398 -0.0131  0.1499
   45SOL    HW1  134  50.654  50.925  48.884 -1.4085  0.5623  2.6536
   45SOL    HW2  135  50.639  51.074  48.883  1.6544 -3.0217 -0.1980
   46SOL     OW  136  49.293  51.036  49.508  0.2893 -0.1585 -0.2936
   46SOL    HW1  137  49.308  51.130  49.507  0.4351 -1.6714  0.8897
   46SOL    HW2  138  49.211  51.024  49.462  0.4431  0.3521  2.6192
   47SOL     OW  139  51.715  49.908  50.087 -0.2485  0.1438  0.2055
   47SOL    HW1  140  51.795  49.865  50.057  0.9278 -0.3519 -1.2333
   47SOL    HW2  141  51.731  50.004  50.059  0.5753 -1.1711  1.9182
   48SOL     OW  142  49.242  49.055  49.844 -0.0668  0.0528  0.1700
   48SOL    HW1  143  49.150  49.026  49.831  1.8903  2.5305 -0.5054
   48SOL    HW2  144  49.294  48.973  49.840  0.3325 -2.0365  0.6418
   49SOL     OW  145  50.117  49.816  48.817  0.2121 -0.5067  0.3470
   49SOL    HW1  146  50.212  49.801  48.825 -2.8946 -0.3504 -2.1770
   49SOL    HW2  147  50.105  49.870  48.742 -0.9325  1.6089  2.7051
   50SOL     OW  148  48.348  49.499  49.999 -0.4765  0.3469  0.1787
   50SOL    HW1  149  48.354  49.431  49.927  0.4394  0.0693  2.5414
   50SOL    HW2  150  48.389  49.466  50.080  0.6550  0.0181 -1.8667
   51SOL     OW  151  50.087  49.843  48.504  0.2339 -0.3462  0.1564
   51SOL    HW1  152  50.126  49.761  48.543  0.7878 -1.2775 -0.3706
   51SOL    HW2  153  50.156  49.855  48.435  1.5908 -1.6402  2.9904
   52SOL     OW  154  50.684  49.814  49.627  0.0636 -0.6304 -0.2126
   52SOL    HW1  155  50.649  49.904  49.634  2.5116 -0.7256 -1.9331
   52SOL    HW2  156  50.622  49.764  49.684 -0.2206  1.5441 -0.5398
   53SOL     OW  157  50.489  50.002  50.638  0.0041 -0.0569 -0.0621
   53SOL    HW1  158  50.415  49.953  50.680  0.0607  0.9945 -0.2287
   53SOL    HW2  159  50.498  50.078  50.697 -1.1810  0.6252  0.1382
   54SOL     OW  160  50.825  50.108  50.763  0.4590  0.0076  0.7144
   54SOL    HW1  161  50.857  50.136  50.677  2.3220  0.5192  0.9364
   54SOL    HW2  162  50.880  50.159  50.822 -1.0001 -1.8132  0.0635
   55SOL     OW  163  50.416  50.943  49.491  0.1834 -0.0470 -0.4063
   55SOL    HW1  164  50.345  50.972  49.431  1.4862 -0.9265 -0.8589
   55SOL    HW2  165  50.485  51.014  49.476 -0.0261  0.1123 -1.8321
   56SOL     OW  166  48.632  49.519  49.132  0.3198 -0.1254  0.3593
   56SOL    HW1  167  48.689  49.592  49.100  0.8350  0.3219  2.1134
   56SOL    HW2  168  48.560  49.572  49.168  0.3786  1.0224  0.1569
   57SOL     OW  169  50.793  49.058  49.274  0.1874 -0.0652  0.3330
   57SOL    HW1  170  50.724  49.031  49.209 -0.5405 -0.4468  1.9804
   57SOL    HW2  171  50.810  48.975  49.325  0.7953 -1.6233 -0.5649
   58SOL     OW  172  50.654  49.297  51.520  0.2038  0.4154 -0.4776
   58SOL    HW1  173  50.565  49.283  51.483  0.2768  0.6929 -1.5485
   58SOL    HW2  174  50.649  49.379  51.568 -0.8940 -0.9718  2.3731
   59SOL     OW  175  48.629  50.040  48.987  0.0438 -0.7536  0.1954
   59SOL    HW1  176  48.559  49.982  49.026 -1.7700 -2.1682 -0.7420
   59SOL    HW2  177  48.620  50.015  48.892  0.3767 -3.1586  0.5660
   60SOL     OW  178  50.396  48.689  50.309 -0.2303  0.5633  0.2123
   60SOL    HW1  179  50.375  48.716  50.400  0.1634  0.6830  0.3293
   60SOL    HW2  180  50.448  48.605  50.323  0.2930  1.2597  1.3140
   61SOL     OW  181  51.450  49.808  50.825  0.0479  0.3462 -0.0611
   61SOL    HW1  182  51.421  49.772  50.911  0.7486 -0.6009 -0.9125
   61SOL    HW2  183  51.501  49.731  50.796 -0.5283  0.0907  1.8835
   62SOL     OW  184  50.718  48.802  50.725  0.3567  0.2958 -0.1960
   62SOL    HW1  185  50.727  48.885  50.776  0.6942 -3.0312 -1.3710
   62SOL    HW2  186  50.713  48.832  50.637  0.2242  1.8370  2.5693
   63SOL     OW  187  50.842  50.707  49.122 -0.1511  0.0902  0.2294
   63SOL    HW1  188  50.901  50.733  49.047 -0.4106  1.6501  1.1956
   63SOL    HW2  189  50.763  50.763  49.108  0.4534  1.0192 -0.5921
   64SOL     OW  190  49.428  51.122  50.653 -0.1053 -0.3269 -0.1902
   64SOL    HW1  191  49.426  51.038  50.605  2.8131 -0.1375  1.7250
   64SOL    HW2  192  49.520  51.154  50.640 -0.9820 -0.5937  1.1342
   65SOL     OW  193  49.385  49.463  51.475 -0.2212 -0.3571 -0.0920
   65SOL    HW1  194  49.300  49.443  51.435  0.7958 -0.3903 -0.8266
   65SOL    HW2  195  49.405  49.377  51.516 -1.7306  1.7357 -1.6906
   66SOL     OW  196  49.175  50.671  49.633  0.5190 -0.0607  0.0124
   66SOL    HW1  197  49.170  50.692  49.538  0.2331 -0.6391  0.6077
   66SOL    HW2  198  49.213  50.581  49.634  0.4525  0.2354 -0.8207
   67SOL     OW  199  50.729  48.909  50.426 -0.3469  0.0535 -0.4735
   67SOL    HW1  200  50.685  48.919  50.344 -0.7125  0.4640  3.3045
   67SOL    HW2  201  50.821  48.908  50.402 -0.6421  1.7103 -2.7499
   68SOL     OW  202  48.419  49.705  49.363 -0.1455  0.1308 -0.2277
   68SOL    HW1  203  48.390  49.786  49.409 -0.2660  1.3521 -0.0116
   68SOL    HW2  204  48.429  49.640  49.436 -0.1027  1.4044 -0.3934
   69SOL     OW  205  50.769  49.580  49.180 -0.0287  0.2631 -0.3136
   69SOL    HW1  206  50.796  49.641  49.251 -0.8885 -1.3418 -1.6846
   69SOL    HW2  207  50.683  49.609  49.146  0.8354  0.1388  0.5559
   70SOL     OW  208  49.886  48.746  51.205 -0.5151  0.5457 -0.0718
   70SOL    HW1  209  49.898  48.676  51.138  0.5137  2.0341  1.1905
   70SOL    HW2  210  49.894  48.822  51.146 -0.3483  0.8843  0.2730
   71SOL     OW  211  50.938  48.868  50.237 -0.5185 -0.1355 -0.1832
   71SOL    HW1  212  50.903  48.802  50.170  0.8299  0.7427  1.7853
   71SOL    HW2  213  51.026  48.899  50.199  0.8532  1.1383 -0.4659
   72SOL     OW  214  50.531  49.550  50.422  0.4521  0.1011 -0.6639
   72SOL    HW1  215  50.549  49.544  50.519 -1.6387 -0.5579 -0.1247
   72SOL    HW2  216  50.439  49.519  50.419  0.3232  1.0335  0.1096
   73SOL     OW  217  50.617  49.325  49.338 -0.3480  0.2155  0.0889
   73SOL    HW1  218  50.656  49.412  49.325  2.2001 -1.0723 -0.8235
   73SOL    HW2  219  50.690  49.271  49.373 -2.1776  0.3541  0.1090
   74SOL     OW  220  49.825  50.731  51.170  0.3142  0.3594 -0.3746
   74SOL    HW1  221  49.857  50.766  51.256 -0.9887  0.2475 -0.7068
   74SOL    HW2  222  49.749  50.680  51.203  0.2197  0.1987  0.3695
   75SOL     OW  223  49.725  49.064  49.239 -0.3139 -0.1913 -0.1371
   75SOL    HW1  224  49.651  49.006  49.216  1.1338  0.0289  1.9236
   75SOL    HW2  225  49.805  49.009  49.227 -3.3403  0.7084  0.7786
   76SOL     OW  226  50.240  51.239  50.489  0.0033  0.0021 -0.7204
   76SOL    HW1  227  50.266  51.265  50.399 -0.2394  2.2179  0.3942
   76SOL    HW2  228  50.159  51.294  50.511  1.3988  0.9943 -1.4122
   77SOL     OW  229  49.060  50.017  50.487 -0.4980 -0.2706  0.0409
   77SOL    HW1  230  48.993  49.955  50.451  1.2876  0.7044 -1.3125
   77SOL    HW2  231  49.026  50.054  50.571  0.5960 -0.3812  0.0061
   78SOL     OW  232  49.813  50.034  48.858 -0.4228 -0.0725  0.1749
   78SOL    HW1  233  49.756  49.962  48.820  1.1874 -0.9035 -0.2294
   78SOL    HW2  234  49.883  50.048  48.792 -2.2600 -0.2670  0.5028
   79SOL     OW  235  49.715  51.651  50.478 -0.1024 -0.1643  0.0137
   79SOL    HW1  236  49.751  51.731  50.522  2.6775 -0.0880  0.1884
   79SOL    HW2  237  49.793  51.593  50.496 -1.1526  1.1086  0.2289
   80SOL     OW  238  50.149  49.740  50.631 -0.0064 -0.4089  0.4728
   80SOL    HW1  239  50.198  49.771  50.707 -0.2685  4.2517 -2.0121
   80SOL    HW2  240  50.058  49.739  50.667  0.4851  1.5208  0.0434
   81SOL     OW  241  49.532  48.753  50.937  0.4320 -0.0709 -0.5905
   81SOL    HW1  242  49.445  48.715  50.913  2.1801  0.0603 -0.0245
   81SOL    HW2  243  49.591  48.740  50.863  0.7570 -0.3854 -1.0249
   82SOL     OW  244  51.223  48.952  50.671 -0.0583  0.0214  0.3207
   82SOL    HW1  245  51.302  48.988  50.713  1.0500  0.7655  1.0748
   82SOL    HW2  246  51.175  48.909  50.746  1.9463 -0.9898 -1.2113
   83SOL     OW  247  50.450  51.516  50.321  0.3808  0.1226 -0.0873
   83SOL    HW1  248  50.371  51.480  50.270  1.2264 -0.8800  1.9776
   83SOL    HW2  249  50.422  51.525  50.414 -1.0291 -0.7043 -1.1787
   84SOL     OW  250  49.703  49.962  50.189  0.6521  1.1967  0.3206
   84SOL    HW1  251  49.605  49.945  50.195 -0.2044  2.1876 -0.3733
   84SOL    HW2  252  49.704  50.016  50.101 -2.6907 -0.0191 -0.3072
   85SOL     OW  253  49.795  51.268  51.085  0.3525  0.0149  0.1687
   85SOL    HW1  254  49.759  51.294  51.174  0.6352 -1.6829 -1.4079
   85SOL    HW2  255  49.720  51.274  51.020 -1.5018 -0.0385 -1.4556
   86SOL     OW  256  50.497  49.060  50.622 -0.2244  0.0300  0.0754
   86SOL    HW1  257  50.451  49.106  50.693  0.5313 -1.4669  0.2624
   86SOL    HW2  258  50.461  48.971  50.617  0.6830  1.1895  0.4257
   87SOL     OW  259  50.306  50.117  50.869 -0.1886 -0.4858 -0.5395
   87SOL    HW1  260  50.314  50.206  50.904  0.2170  0.8613 -1.8690
   87SOL    HW2  261  50.392  50.080  50.890 -1.4352  1.5974  2.1193
   88SOL     OW  262  49.142  49.388  50.212  0.4492 -0.1905 -0.3557
   88SOL    HW1  263  49.185  49.328  50.277 -0.5621 -0.3672 -0.5738
   88SOL    HW2  264  49.103  49.450  50.272 -0.7427 -0.9505  1.9830
   89SOL     OW  265  50.060  50.984  49.739  0.5473 -0.4204 -0.2041
   89SOL    HW1  266  50.058  50.998  49.643  2.2106 -1.4340 -0.3291
   89SOL    HW2  267  50.103  50.897  49.754 -0.0675  1.9621  1.2267
   90SOL     OW  268  49.041  48.529  50.138 -0.3601 -0.1183 -0.1546
   90SOL    HW1  269  49.070  48.515  50.045 -2.9300  1.1562  0.5718
   90SOL    HW2  270  48.962  48.472  50.144 -2.2395  3.0431 -0.1226
   91SOL     OW  271  49.896  50.824  50.560 -0.2853 -0.5306  0.3469
   91SOL    HW1  272  49.932  50.910  50.601 -0.3414 -0.5285  0.4642
   91SOL    HW2  273  49.925  50.841  50.470 -1.5429  1.2210 -0.1437
   92SOL     OW  274  48.530  49.272  50.560 -0.2061 -0.5240 -0.0898
   92SOL    HW1  275  48.435  49.289  50.573  1.3379 -0.1011 -1.1581
   92SOL    HW2  276  48.533  49.203  50.490 -0.2250 -1.6899  1.7603
   93SOL     OW  277  51.263  49.584  49.868 -0.1717  0.0830  0.3690
   93SOL    HW1  278  51.206  49.636  49.928 -1.4234 -1.0518  0.1151
   93SOL    HW2  279  51.197  49.547  49.804  1.2781  1.3392  0.6444
   94SOL     OW  280  50.678  51.334  49.093 -0.5870 -0.1691 -0.2459
   94SOL    HW1  281  50.744  51.260  49.104  0.2408  0.0439  2.0026
   94SOL    HW2  282  50.736  51.407  49.059  0.0877 -1.0450  0.8105
   95SOL     OW  283  51.349  50.880  49.451  0.0140 -0.6844 -0.4545
   95SOL    HW1  284  51.429  50.902  49.504 -1.3661 -0.2989 -0.9405
   95SOL    HW2  285  51.289  50.824  49.506 -0.3385 -2.2647  0.8391
   96SOL     OW  286  50.633  50.604  51.434 -0.2994  0.2606 -0.5404
   96SOL    HW1  287  50.564  50.632  51.370 -0.7935 -0.0964 -1.2516
   96SOL    HW2  288  50.711  50.659  51.419  0.8199 -2.2970 -3.0049
   97SOL     OW  289  50.435  50.626  49.410  0.3276  0.3412  0.5614
   97SOL    HW1  290  50.479  50.562  49.354 -0.8854 -0.7102  0.3454
   97SOL    HW2  291  50.496  50.700  49.421 -1.2241 -0.2459 -1.1497
   98SOL     OW  292  49.202  51.053  50.296  0.4921  0.1129  0.2262
   98SOL    HW1  293  49.246  51.077  50.210 -1.3887 -0.4677  0.9598
   98SOL    HW2  294  49.143  50.980  50.269  2.3515  0.9692  0.7054
   99SOL     OW  295  50.075  50.989  49.453  0.2426  0.2247  0.4079
   99SOL    HW1  296  50.018  51.002  49.378 -1.3785 -0.2380  2.5993
   99SOL    HW2  297  50.158  51.027  49.424 -1.3889 -2.1317 -2.8403
  100SOL     OW  298  51.441  50.557  50.020  0.1355  0.2074  0.0212
  100SOL    HW1  299  51.446  50.579  50.111  2.0617 -1.8398 -0.0598
  100SOL    HW2  300  51.463  50.464  50.025 -2.5894  0.9280  0.0487
  101SOL     OW  301  50.066  51.408  49.884 -0.0377 -0.2010 -0.3159
  101SOL    HW1  302  50.122  51.472  49.932 -1.6573 -0.9922 -1.7310
  101SOL    HW2  303  49.990  51.461  49.853  0.6763  0.7946  0.6678
  102SOL     OW  304  50.625  50.261  49.920  0.1583  0.2051  0.0645
  102SOL    HW1  305  50.570  50.320  49.974  0.0416 -0.2512 -0.8454
  102SOL    HW2  306  50.563  50.186  49.900  1.4063  0.8838  1.0569
  103SOL     OW  307  49.486  50.586  50.944  0.4213  0.1707 -0.2024
  103SOL    HW1  308  49.469  50.650  51.020  0.8105  0.6521 -1.8711
  103SOL    HW2  309  49.531  50.648  50.885 -0.4616  0.1149  0.8436
  104SOL     OW  310  49.669  50.284  49.809  0.4408  0.4914  0.2948
  104SOL    HW1  311  49.671  50.381  49.791  0.3746  0.3278  0.5336
  104SOL    HW2  312  49.587  50.256  49.760  0.3723  0.0747  0.1198
  105SOL     OW  313  49.132  51.197  49.354  0.3618 -0.1699 -0.3352
  105SOL    HW1  314  49.201  51.263  49.360 -0.4642  2.1314  2.5076
  105SOL    HW2  315  49.169  51.135  49.287  3.4559  0.9575  1.9723
  106SOL     OW  316  49.777  50.566  48.374  0.0420  0.0920  0.5196
  106SOL    HW1  317  49.706  50.563  48.310  1.4221 -0.3931  0.5411
  106SOL    HW2  318  49.747  50.504  48.446  1.8428  0.7095 -2.5232
  107SOL     OW  319  49.964  51.055  49.082  0.5343  0.3055 -0.0425
  107SOL    HW1  320  49.905  51.083  49.011  1.7869  2.4769 -1.9142
  107SOL    HW2  321  50.045  51.026  49.032 -2.5027  0.0836  0.8932
  108SOL     OW  322  49.274  48.671  50.844 -0.1855  0.1834 -0.2335
  108SOL    HW1  323  49.230  48.748  50.889 -0.2395 -2.1731  0.4092
  108SOL    HW2  324  49.222  48.598  50.880  0.1268 -1.4602 -1.1585
  109SOL     OW  325  49.131  48.944  50.225  0.3585 -0.0930  0.6932
  109SOL    HW1  326  49.189  48.865  50.205  0.3959 -0.4269  0.1221
  109SOL    HW2  327  49.181  49.020  50.196  0.3178 -0.4989  2.6848
  110SOL     OW  328  49.566  50.554  50.536  0.1816 -0.0805 -0.2378
  110SOL    HW1  329  49.540  50.587  50.449  0.6223 -1.0226  0.9421
  110SOL    HW2  330  49.573  50.632  50.591  0.1719 -1.0298 -1.8320
  111SOL     OW  331  50.910  51.049  50.410  0.0927  0.1090  0.2270
  111SOL    HW1  332  50.874  51.008  50.329 -0.5958 -1.2281  0.6992
  111SOL    HW2  333  50.880  50.981  50.475 -1.0792 -0.5305 -0.8515
  112SOL     OW  334  49.154  51.031  51.029  0.7734  0.0506 -0.1915
  112SOL    HW1  335  49.122  50.939  51.042  0.0550  1.5789  0.3653
  112SOL    HW2  336  49.073  51.069  50.992  2.0094 -0.2833 -0.0767
  113SOL     OW  337  49.817  49.651  49.067  0.3324 -0.0482 -0.2218
  113SOL    HW1  338  49.861  49.733  49.093  1.9028 -1.4330  1.0398
  113SOL    HW2  339  49.853  49.654  48.975 -0.3070  2.3751  0.4629
  114SOL     OW  340  49.645  48.991  49.762 -0.2527  0.0663 -0.3126
  114SOL    HW1  341  49.734  48.978  49.713  0.8519  0.9772  1.0690
  114SOL    HW2  342  49.654  49.088  49.774  1.2392 -0.6689  0.1610
  115SOL     OW  343  49.995  50.035  48.265 -0.1644  0.1639 -0.0279
  115SOL    HW1  344  49.902  49.998  48.272 -1.4164  1.1081  0.4249
  115SOL    HW2  345  49.981  50.127  48.292 -0.9739 -0.7893  0.3496
  116SOL     OW  346  50.622  49.953  51.149 -0.2440 -0.1116  0.1670
  116SOL    HW1  347  50.714  49.976  51.149 -2.4360 -2.2619  0.8211
  116SOL    HW2  348  50.614  49.902  51.231 -0.7891  0.3612 -1.5305
  117SOL     OW  349  49.887  49.790  50.688  0.1017  0.5339  0.1693
  117SOL    HW1  350  49.792  49.804  50.694  0.0858  2.3370 -0.5482
  117SOL    HW2  351  49.907  49.875  50.650 -2.7081  1.1251 -0.7770
  118SOL     OW  352  50.500  49.669  49.799 -0.1978  0.3342  0.2951
  118SOL    HW1  353  50.411  49.669  49.834 -0.6017 -0.3614 -1.2238
  118SOL    HW2  354  50.513  49.579  49.769 -0.9161  2.4625 -0.2007
  119SOL     OW  355  49.353  50.126  50.025  0.2742 -0.4954 -0.1877
  119SOL    HW1  356  49.335  50.107  49.933 -1.5443 -1.8428  0.9823
  119SOL    HW2  357  49.298  50.205  50.035  0.2312 -0.8691 -1.9672
  120SOL     OW  358  48.744  50.005  51.245  0.2223 -0.0938 -0.4965
  120SOL    HW1  359  48.838  49.987  51.248 -1.1251  0.3686  0.4209
  120SOL    HW2  360  48.719  50.005  51.151  0.0407 -0.9134 -0.7491
  121SOL     OW  361  51.059  49.666  50.038  0.2491 -0.1388  0.4340
  121SOL    HW1  362  51.072  49.763  50.043 -2.6635  0.6763 -0.0786
  121SOL    HW2  363  50.971  49.663  50.081  2.5107  0.4882  2.5347
  122SOL     OW  364  50.930  49.870  50.330  0.2300 -0.3416 -0.0307
  122SOL    HW1  365  50.879  49.802  50.279  0.3063  1.2492 -0.3977
  122SOL    HW2  366  50.983  49.917  50.259 -1.7987 -0.3277  0.0838
  123SOL     OW  367  49.347  50.753  48.794  0.0848 -0.3581 -0.3950
  123SOL    HW1  368  49.369  50.796  48.880 -0.5256 -0.6200 -0.1753
  123SOL    HW2  369  49.283  50.685  48.829  1.0029  2.2948  0.0819
  124SOL     OW  370  50.116  51.649  50.199  0.3668  0.2815  0.0206
  124SOL    HW1  371  50.017  51.668  50.208  0.1940 -0.0306 -0.1701
  124SOL    HW2  372  50.136  51.652  50.102 -1.0204 -0.0276 -1.9637
  125SOL     OW  373  49.270  48.718  50.240  0.1622  0.3577  0.0401
  125SOL    HW1  374  49.349  48.661  50.264 -1.6715  0.1693 -0.2346
  125SOL    HW2  375  49.212  48.646  50.214  0.6023 -0.8105 -1.3604
  126SOL     OW  376  50.786  50.080  51.525  0.3150  0.3212 -0.0560
  126SOL    HW1  377  50.772  50.145  51.452  3.8330 -1.0253  0.5564
  126SOL    HW2  378  50.851  50.126  51.581 -1.6799  0.4228  0.3000
  127SOL     OW  379  49.789  49.222  50.862  0.1227 -0.5074  0.3137
  127SOL    HW1  380  49.841  49.239  50.783  0.6554  1.0939  0.2956
  127SOL    HW2  381  49.703  49.259  50.839  3.0817 -1.1855  0.2697
  128SOL     OW  382  48.876  48.866  50.071  0.0173 -0.1218 -0.0749
  128SOL    HW1  383  48.964  48.837  50.043 -2.6413 -1.1494  2.9220
  128SOL    HW2  384  48.875  48.849  50.164 -0.9383  0.7720  0.1565
  129SOL     OW  385  49.802  51.452  48.987 -0.4821  0.5757 -0.0102
  129SOL    HW1  386  49.784  51.424  49.074 -0.9091  1.0026 -1.9030
  129SOL    HW2  387  49.727  51.413  48.942  1.3426  0.6319  2.0427
  130SOL     OW  388  49.199  48.853  49.308  0.3113 -0.0429 -0.0195
  130SOL    HW1  389  49.269  48.923  49.317 -0.9044 -0.9939 -1.0388
  130SOL    HW2  390  49.130  48.904  49.263  1.5348 -0.2122 -0.1638
  131SOL     OW  391  48.586  50.696  50.667  0.0867  0.0326 -0.2030
  131SOL    HW1  392  48.520  50.629  50.689  1.3406  0.7511  0.6187
  131SOL    HW2  393  48.622  50.721  50.753  0.0661 -0.8203 -2.7551
  132SOL     OW  394  50.272  51.059  49.287 -0.4253 -0.0988  0.2376
  132SOL    HW1  395  50.282  51.146  49.248 -0.3297 -0.0214 -1.1473
  132SOL    HW2  396  50.328  51.016  49.220 -2.6752  0.8918  0.7294
  133SOL     OW  397  50.881  50.048  51.109 -0.0411 -0.4354  0.6616
  133SOL    HW1  398  50.962  49.995  51.121  0.0378 -2.3589 -0.1746
  133SOL    HW2  399  50.930  50.124  51.066  0.5285 -2.2414  0.6512
  134SOL     OW  400  50.337  49.344  50.416  0.0038 -0.5802 -0.2980
  134SOL    HW1  401  50.413  49.288  50.438 -2.4903  0.5787 -0.2621
  134SOL    HW2  402  50.262  49.289  50.428  0.8866 -0.0192  1.5306
  135SOL     OW  403  50.769  50.464  50.653 -0.2196 -0.2445 -0.0806
  135SOL    HW1  404  50.703  50.477  50.719  1.6814 -3.2325  1.4489
  135SOL    HW2  405  50.848  50.486  50.703 -1.0919 -0.1541 -1.6106
  136SOL     OW  406  50.202  50.983  48.975 -0.2669 -0.1900 -0.0717
  136SOL    HW1  407  50.221  50.890  48.997  0.8512  1.2534 -0.2265
  136SOL    HW2  408  50.290  51.014  48.952  0.7003 -1.6995  0.3000
  137SOL     OW  409  50.305  48.845  49.766  0.8776 -0.3315  0.5300
  137SOL    HW1  410  50.220  48.802  49.776 -1.0816  0.3099  0.2309
  137SOL    HW2  411  50.307  48.903  49.850  0.2387 -0.2252 -1.3966
  138SOL     OW  412  50.496  51.168  50.236 -0.4681 -0.3466  0.4261
  138SOL    HW1  413  50.467  51.256  50.271 -0.3908  0.6248 -2.1289
  138SOL    HW2  414  50.532  51.195  50.146  0.3616  1.0797 -0.0305
  139SOL     OW  415  50.915  50.515  50.874 -0.0645  0.3512 -0.5839
  139SOL    HW1  416  50.944  50.492  50.965 -2.6439  2.3413 -0.8063
  139SOL    HW2  417  50.851  50.587  50.895  0.3377 -0.1932 -0.9638
  140SOL     OW  418  50.409  50.371  50.708  0.4375 -0.0895  0.3231
  140SOL    HW1  419  50.352  50.439  50.661  1.6021  0.6489 -2.6511
  140SOL    HW2  420  50.469  50.348  50.632 -0.9894  1.0262 -2.1120
  141SOL     OW  421  48.515  50.036  49.392 -0.2565  0.1905 -0.3097
  141SOL    HW1  422  48.474  50.126  49.395 -0.1103 -2.0247  0.2149
  141SOL    HW2  423  48.485  49.999  49.477 -1.2923  2.1141 -1.3017
  142SOL     OW  424  49.781  50.798  49.071  0.2074  0.3899 -0.3178
  142SOL    HW1  425  49.788  50.711  49.122 -1.6984  0.4216 -0.5063
  142SOL    HW2  426  49.840  50.860  49.119 -0.7849 -0.4048  0.5083
  143SOL     OW  427  51.009  50.269  51.040 -0.0086 -0.3859 -0.1625
  143SOL    HW1  428  50.981  50.356  51.083  1.0110 -0.6024 -1.4231
  143SOL    HW2  429  51.107  50.283  51.024 -0.9460  1.1758 -0.0956
  144SOL     OW  430  49.031  50.725  50.689  0.1067  0.1627 -0.5827
  144SOL    HW1  431  49.000  50.668  50.765 -0.6459 -2.3341 -0.7062
  144SOL    HW2  432  49.017  50.666  50.610 -0.2115  0.9046  0.8119
  145SOL     OW  433  50.012  50.447  49.961 -0.1252  0.0452 -0.6948
  145SOL    HW1  434  49.978  50.378  50.021  0.6224  0.8007  0.6317
  145SOL    HW2  435  50.061  50.506  50.023 -0.7042 -0.5302 -0.8647
  146SOL     OW  436  49.992  51.056  50.672 -0.3125 -0.2475 -0.1776
  146SOL    HW1  437  49.953  51.053  50.764  0.5981  1.6916 -0.6811
  146SOL    HW2  438  50.003  51.152  50.661  1.3323 -0.3742 -0.3041
  147SOL     OW  439  49.342  51.326  49.530 -0.5366  0.2909 -0.8768
  147SOL    HW1  440  49.392  51.409  49.519 -0.0274 -1.1393 -1.9021
  147SOL    HW2  441  49.250  51.358  49.551  1.1409  1.1989 -1.3300
  148SOL     OW  442  49.135  49.414  48.702 -0.2239  0.2635  0.0466
  148SOL    HW1  443  49.211  49.399  48.643 -1.4569 -1.2715 -0.4928
  148SOL    HW2  444  49.125  49.324  48.739  0.1485  1.1750 -0.5725
  149SOL     OW  445  50.235  50.560  50.593 -0.1503 -0.4620 -0.0395
  149SOL    HW1  446  50.253  50.634  50.536 -1.5356 -0.5386 -0.5684
  149SOL    HW2  447  50.226  50.492  50.525  1.5912  0.7235  0.8178
  150SOL     OW  448  49.700  50.866  48.820 -0.0373 -0.1722  0.3474
  150SOL    HW1  449  49.766  50.802  48.789 -0.3825  2.0915 -0.0895
  150SOL    HW2  450  49.717  50.860  48.914  1.5101 -0.7008  0.2255
  151SOL     OW  451  50.924  50.807  50.847 -0.3107  0.3796 -0.1997
  151SOL    HW1  452  50.966  50.841  50.927 -0.9080 -1.9084 -1.6521
  151SOL    HW2  453  50.983  50.736  50.820  0.7517  2.0774 -0.8982
  152SOL     OW  454  49.634  49.920  50.523  0.1426 -0.3742 -0.7006
  152SOL    HW1  455  49.631  49.901  50.429  1.1977 -0.0679  0.9211
  152SOL    HW2  456  49.720  49.967  50.532 -0.9578 -0.2509 -2.2396
  153SOL     OW  457  49.845  48.734  49.472  0.1829  0.5701 -0.0888
  153SOL    HW1  458  49.922  48.794  49.455  2.3263 -0.3026 -1.3928
  153SOL    HW2  459  49.872  48.654  49.412  0.3038 -0.6883 -0.9318
  154SOL     OW  460  48.457  50.001  50.592  0.4214 -0.1451  0.6349
  154SOL    HW1  461  48.514  49.923  50.602 -0.3814  0.3034  0.9078
  154SOL    HW2  462  48.391  49.974  50.526  0.3129  0.4676  2.8900
  155SOL     OW  463  48.913  50.837  49.106  0.3017 -0.6048 -0.0710
  155SOL    HW1  464  48.865  50.898  49.045 -0.9942  0.6269  0.2591
  155SOL    HW2  465  48.834  50.782  49.134 -0.4094  0.2141 -0.9146
  156SOL     OW  466  50.118  50.369  48.858 -0.3934  0.5999  0.2842
  156SOL    HW1  467  50.089  50.327  48.770 -1.6349 -0.2840  0.4714
  156SOL    HW2  468  50.029  50.401  48.884 -1.4543 -0.9403  1.5752
  157SOL     OW  469  51.546  49.617  50.482 -0.8167 -0.3365  0.1561
  157SOL    HW1  470  51.491  49.688  50.439  1.7254  0.3772 -0.8919
  157SOL    HW2  471  51.555  49.559  50.405 -1.5243 -0.3066 -0.3165
  158SOL     OW  472  49.794  48.712  50.475  0.2529 -0.1729 -0.2411
  158SOL    HW1  473  49.699  48.723  50.454 -1.3509 -0.4000  0.2007
  158SOL    HW2  474  49.786  48.693  50.574 -0.2857  0.4060 -0.1058
  159SOL     OW  475  50.214  48.487  49.154  0.6610 -0.0245  0.4235
  159SOL    HW1  476  50.133  48.467  49.107 -1.7350 -2.6529  0.5916
  159SOL    HW2  477  50.233  48.399  49.190  1.0110  4.0240 -1.1831
  160SOL     OW  478  49.452  49.059  50.811 -0.5993 -0.2080  0.5138
  160SOL    HW1  479  49.505  48.986  50.786 -1.1110  0.0303  2.8889
  160SOL    HW2  480  49.436  49.040  50.905 -0.0500  2.2469  0.2338
  161SOL     OW  481  50.630  49.118  49.576 -0.3609  0.2680 -0.0898
  161SOL    HW1  482  50.674  49.033  49.587 -0.1961  2.0231 -3.1087
  161SOL    HW2  483  50.538  49.097  49.593  3.9192 -0.2173 -0.7422
  162SOL     OW  484  51.054  49.565  51.180  0.0698  0.3603 -0.0348
  162SOL    HW1  485  51.084  49.638  51.238  0.3126 -1.1395 -1.8528
  162SOL    HW2  486  51.030  49.614  51.101 -1.1222 -0.4544  2.9552
  163SOL     OW  487  49.274  49.702  51.126  0.5590 -0.2581 -0.3849
  163SOL    HW1  488  49.256  49.679  51.215  1.3844 -1.2819 -2.6962
  163SOL    HW2  489  49.205  49.653  51.081  0.0211  0.5875  1.6138
  164SOL     OW  490  50.439  49.829  48.398 -0.1811 -0.8564  0.1600
  164SOL    HW1  491  50.401  49.909  48.368 -1.6149 -0.2760 -1.2950
  164SOL    HW2  492  50.372  49.768  48.365  0.5926  1.9218  3.0210
  165SOL     OW  493  49.551  49.588  51.310  0.5063 -0.1818  0.1852
  165SOL    HW1  494  49.508  49.535  51.382 -1.2841 -0.6796 -0.4901
  165SOL    HW2  495  49.494  49.550  51.236 -0.8859 -0.2183  1.0250
  166SOL     OW  496  51.119  50.044  50.701 -0.1065 -0.2646  0.1985
  166SOL    HW1  497  51.170  49.968  50.667 -3.3622 -0.2835  0.3508
  166SOL    HW2  498  51.049  50.046  50.633  0.0012  1.1153 -1.7482
  167SOL     OW  499  48.874  50.952  50.692 -0.0912  0.0413 -0.2398
  167SOL    HW1  500  48.796  50.921  50.641 -0.0877 -1.0206  1.6504
  167SOL    HW2  501  48.934  50.873  50.702 -0.2246 -0.4127 -0.0568
  168SOL     OW  502  49.647  49.463  49.040 -0.0312  0.3704 -0.4088
  168SOL    HW1  503  49.577  49.531  49.041  1.0062  0.7227 -0.6450
  168SOL    HW2  504  49.725  49.524  49.062 -2.4853  1.4857 -1.4724
  169SOL     OW  505  49.374  50.303  49.285  0.1380 -0.1337  0.1123
  169SOL    HW1  506  49.306  50.323  49.352  1.3618 -0.7316  1.3436
  169SOL    HW2  507  49.384  50.209  49.308 -1.0168 -0.1760  0.2374
  170SOL     OW  508  49.182  49.613  49.285 -0.3874  0.6500  0.7365
  170SOL    HW1  509  49.226  49.692  49.241  0.5826 -1.6559  1.4966
  170SOL    HW2  510  49.197  49.543  49.216  1.2352  1.8180  1.6909
  171SOL     OW  511  51.412  50.445  49.738 -0.6996  0.5678  0.5749
  171SOL    HW1  512  51.347  50.366  49.740  0.1116  0.1960 -0.7843
  171SOL    HW2  513  51.396  50.493  49.822 -0.5452  0.7610 -0.9630
  172SOL     OW  514  48.372  50.217  49.821  0.4318 -0.3107 -0.3975
  172SOL    HW1  515  48.305  50.154  49.790  4.5648 -0.4518  0.9242
  172SOL    HW2  516  48.379  50.198  49.914 -0.9101 -0.1519 -1.0670
  173SOL     OW  517  49.767  49.525  50.257  0.4119 -0.4115 -0.0365
  173SOL    HW1  518  49.846  49.474  50.272  0.4942  1.8559  1.3137
  173SOL    HW2  519  49.745  49.553  50.346 -0.7282  0.9077 -1.0224
  174SOL     OW  520  49.966  49.963  51.110 -0.5661  0.5843  1.0831
  174SOL    HW1  521  49.940  50.043  51.058  1.7309 -1.4063 -1.0004
  174SOL    HW2  522  49.955  49.893  51.044 -0.6639  1.5590  1.5655
  175SOL     OW  523  49.652  48.395  49.593  0.9028 -0.0137 -0.2401
  175SOL    HW1  524  49.725  48.398  49.529 -0.8736 -0.3761  0.0256
  175SOL    HW2  525  49.576  48.425  49.539 -0.6645  0.6373  0.4854
  176SOL     OW  526  49.329  49.973  51.211  0.2526 -0.4021 -0.0960
  176SOL    HW1  527  49.316  49.890  51.161  0.6138  1.1166 -1.3132
  176SOL    HW2  528  49.239  50.012  51.217  1.2885 -0.7267  0.9669
  177SOL     OW  529  49.394  48.992  51.069 -0.5851  0.0047 -0.0172
  177SOL    HW1  530  49.405  49.069  51.134  0.1079 -0.7400  0.0204
  177SOL    HW2  531  49.458  48.926  51.105 -1.3404  0.6157  0.4062
  178SOL     OW  532  50.984  49.029  48.842  0.4753  0.1205  0.1907
  178SOL    HW1  533  50.977  48.933  48.825 -2.8687 -0.9589  0.5508
  178SOL    HW2  534  50.987  49.031  48.943  0.7524 -0.7975 -1.0414
  179SOL     OW  535  51.034  49.948  50.084  0.7715  0.5881  0.2632
  179SOL    HW1  536  51.002  49.957  49.992  0.3603  2.0917 -0.4232
  179SOL    HW2  537  51.116  49.999  50.084 -1.6085 -1.0902  0.7839
  180SOL     OW  538  49.737  51.676  49.530 -0.4498  0.2064  0.3604
  180SOL    HW1  539  49.660  51.649  49.481  0.3027 -0.1175  1.2658
  180SOL    HW2  540  49.807  51.683  49.465 -2.0629 -1.0191  1.9554
  181SOL     OW  541  49.356  50.442  49.736  0.0548 -0.3396 -0.0567
  181SOL    HW1  542  49.378  50.349  49.717 -0.4041  1.2015  0.8438
  181SOL    HW2  543  49.445  50.482  49.725  0.3005 -1.8689  1.3105
  182SOL     OW  544  50.783  49.459  50.378 -0.3447 -0.0361 -0.4111
  182SOL    HW1  545  50.753  49.398  50.454 -2.4484 -0.0291 -2.0303
  182SOL    HW2  546  50.704  49.517  50.368 -2.0471 -0.3676  0.6705
  183SOL     OW  547  49.175  49.706  48.551  0.4788 -0.1981  0.4373
  183SOL    HW1  548  49.091  49.746  48.581  1.4779 -0.4727  1.1764
  183SOL    HW2  549  49.172  49.611  48.569 -0.0634 -0.2211  1.7094
  184SOL     OW  550  49.283  50.525  50.770 -0.2033  0.1341 -0.1403
  184SOL    HW1  551  49.311  50.593  50.708 -2.0627 -1.0104  1.6710
  184SOL    HW2  552  49.355  50.528  50.836  1.1159  1.4664 -1.4195
  185SOL     OW  553  50.654  49.381  49.647 -0.4233  0.5435 -0.4371
  185SOL    HW1  554  50.666  49.292  49.610  0.4179  1.8507  0.2855
  185SOL    HW2  555  50.589  49.427  49.588  1.4656  0.0170 -0.0128
  186SOL     OW  556  48.777  50.893  50.224  0.3640  0.2576 -0.0020
  186SOL    HW1  557  48.855  50.922  50.273  0.6111  1.9740  1.8898
  186SOL    HW2  558  48.714  50.871  50.301  0.2833  0.2718  2.5687
  187SOL     OW  559  51.547  50.082  50.736 -0.0435 -0.0277  0.2826
  187SOL    HW1  560  51.597  50.106  50.813  1.6148  0.2500 -1.4862
  187SOL    HW2  561  51.455  50.079  50.757  1.9584  0.3567  0.1669
  188SOL     OW  562  50.166  50.584  50.862 -0.6131  0.1581 -0.1199
  188SOL    HW1  563  50.209  50.585  50.774  0.7067  0.7298  1.9853
  188SOL    HW2  564  50.072  50.565  50.840  0.8834  3.0047 -1.6745
  189SOL     OW  565  49.854  51.671  50.210 -0.0600 -0.2216  0.8171
  189SOL    HW1  566  49.798  51.684  50.131  0.2083  0.5498  0.6591
  189SOL    HW2  567  49.784  51.660  50.275 -0.9787  0.1816  0.6459
  190SOL     OW  568  49.849  49.343  48.873  0.5795 -0.4346 -0.2335
  190SOL    HW1  569  49.875  49.276  48.937 -1.0798  2.0340 -2.7160
  190SOL    HW2  570  49.773  49.372  48.923  0.5004 -0.3418  1.0698
  191SOL     OW  571  50.332  51.371  49.433 -0.1636  0.1868  0.4015
  191SOL    HW1  572  50.362  51.401  49.520 -0.9520 -0.2305 -0.0926
  191SOL    HW2  573  50.234  51.367  49.445  0.8778 -0.6181  1.0714
  192SOL     OW  574  50.030  48.737  49.751 -0.2505  0.0031  0.3513
  192SOL    HW1  575  49.953  48.680  49.738  0.9226  0.8984  0.5598
  192SOL    HW2  576  49.990  48.824  49.733 -1.2912 -0.9668  2.8889
  193SOL     OW  577  50.152  49.113  50.440 -0.1983 -0.4523  0.5924
  193SOL    HW1  578  50.099  49.183  50.484  1.1939 -1.3050 -0.9664
  193SOL    HW2  579  50.126  49.034  50.489 -0.7347  1.4610  1.4520
  194SOL     OW  580  50.205  50.709  49.805 -0.5931 -0.0010 -0.4769
  194SOL    HW1  581  50.205  50.620  49.769  1.0634  0.3420  1.9610
  194SOL    HW2  582  50.187  50.693  49.897 -0.8560  1.2683 -2.0233
  195SOL     OW  583  48.700  49.647  49.764  0.0423  0.2009 -0.3871
  195SOL    HW1  584  48.718  49.610  49.678  0.3857  2.1154  2.6469
  195SOL    HW2  585  48.748  49.590  49.826  2.0821  1.4347 -0.6194
  196SOL     OW  586  50.805  50.126  48.481  0.0061 -0.3761  0.2699
  196SOL    HW1  587  50.839  50.043  48.441 -0.1048  0.2262  3.4001
  196SOL    HW2  588  50.821  50.108  48.574  1.3529  0.5309  1.1546
  197SOL     OW  589  49.844  51.098  48.629  0.4257 -0.2351 -0.3526
  197SOL    HW1  590  49.940  51.132  48.627 -0.2482  2.0493 -0.2818
  197SOL    HW2  591  49.850  51.009  48.667  1.5457  0.6173  0.7164
  198SOL     OW  592  49.136  49.731  50.474 -0.2263 -0.2966 -0.3844
  198SOL    HW1  593  49.168  49.747  50.565  0.0991 -1.3983 -0.6870
  198SOL    HW2  594  49.077  49.652  50.481  2.5783  0.6723 -0.0006
  199SOL     OW  595  48.627  49.761  50.154 -0.0343 -0.0934  0.1717
  199SOL    HW1  596  48.538  49.718  50.157  0.9605 -1.9160  1.0114
  199SOL    HW2  597  48.671  49.699  50.091 -0.2007  0.3110  0.6634
  200SOL     OW  598  49.264  49.829  49.153  0.0046  0.0234 -0.0462
  200SOL    HW1  599  49.311  49.800  49.069 -1.1500  0.7072 -0.0504
  200SOL    HW2  600  49.190  49.890  49.136  0.9832 -1.1239 -0.2407
  201SOL     OW  601  50.667  49.865  49.951  0.1755 -0.1339 -0.7925
  201SOL    HW1  602  50.604  49.801  49.925  1.1838 -1.1801  1.4515
  201SOL    HW2  603  50.610  49.940  49.974 -0.0890 -1.6745 -1.1545
  202SOL     OW  604  49.974  49.987  50.203 -0.2151 -0.0995 -0.0866
  202SOL    HW1  605  49.894  49.933  50.206  0.6277 -3.2685 -0.4334
  202SOL    HW2  606  50.034  49.928  50.155 -0.4574  1.9251  1.3723
  203SOL     OW  607  48.705  50.967  49.820  0.2240 -0.3267  0.7058
  203SOL    HW1  608  48.725  50.871  49.815  0.8803  1.3943 -0.4032
  203SOL    HW2  609  48.679  50.987  49.729  1.6948 -0.9785  0.5468
  204SOL     OW  610  49.347  50.008  50.562  0.1430 -0.1244 -0.2306
  204SOL    HW1  611  49.413  50.001  50.493 -0.4950 -1.1355  1.8567
  204SOL    HW2  612  49.264  49.979  50.529  1.1196 -1.3398  1.8634
  205SOL     OW  613  49.295  51.110  50.032  0.0500  0.1562 -0.3266
  205SOL    HW1  614  49.206  51.146  50.021  0.5936  0.4028 -0.3056
  205SOL    HW2  615  49.333  51.140  49.950 -3.2430 -0.7447  1.3570
  206SOL     OW  616  50.549  48.452  50.324 -0.3965 -0.1335 -0.0657
  206SOL    HW1  617  50.497  48.369  50.321 -0.2013 -0.6259  2.4082
  206SOL    HW2  618  50.591  48.449  50.414 -0.3224 -0.3469 -1.2918
  207SOL     OW  619  49.697  51.097  50.485 -0.0953  0.3377  0.2592
  207SOL    HW1  620  49.707  51.030  50.556 -0.1752 -0.1867  3.3666
  207SOL    HW2  621  49.725  51.051  50.400  0.1803  2.1170  1.1429
  208SOL     OW  622  49.037  49.886  49.601  0.9529 -0.2564 -0.9578
  208SOL    HW1  623  48.942  49.894  49.610  2.1097 -0.5616 -0.4155
  208SOL    HW2  624  49.058  49.824  49.675 -0.1577  0.1777  0.5584
  209SOL     OW  625  49.722  49.691  50.049 -0.1462 -1.4376 -0.2554
  209SOL    HW1  626  49.730  49.625  50.122 -1.7325  0.2972 -0.1282
  209SOL    HW2  627  49.781  49.759  50.082 -1.0052  0.5533  1.6345
  210SOL     OW  628  48.747  49.650  49.468  0.1987 -0.1091 -0.8587
  210SOL    HW1  629  48.654  49.672  49.466  1.5287  0.7751  1.0192
  210SOL    HW2  630  48.788  49.705  49.401 -1.6266 -0.3110  0.7146
  211SOL     OW  631  51.080  49.071  49.902 -0.2177  0.1591  0.2964
  211SOL    HW1  632  51.066  49.160  49.944 -0.7372  0.7209 -1.3701
  211SOL    HW2  633  51.094  49.017  49.983  1.1180  1.6269 -1.0276
  212SOL     OW  634  48.910  50.292  50.958 -0.1273 -0.1918  0.4665
  212SOL    HW1  635  48.958  50.322  50.880  1.2511  0.3911  0.1194
  212SOL    HW2  636  48.981  50.265  51.021 -2.5062 -0.6682 -1.9338
  213SOL     OW  637  51.391  50.866  50.457  0.7422 -0.8341 -0.2593
  213SOL    HW1  638  51.482  50.870  50.422 -3.3421 -3.2165 -1.9802
  213SOL    HW2  639  51.395  50.796  50.526 -0.2088  0.3166 -0.2958
  214SOL     OW  640  50.914  50.503  48.775  0.3527 -0.4425  0.4385
  214SOL    HW1  641  50.840  50.518  48.713 -0.2123 -1.3720 -0.5509
  214SOL    HW2  642  50.946  50.422  48.730 -2.2052  0.7080 -0.2486
  215SOL     OW  643  50.709  50.482  50.178 -0.5289  0.1575 -0.1796
  215SOL    HW1  644  50.768  50.443  50.250 -1.8023  2.4012  0.8669
  215SOL    HW2  645  50.773  50.543  50.135  1.4733  0.1954  0.7441
  216SOL     OW  646  48.633  49.770  50.636 -0.0009  0.1999  0.1699
  216SOL    HW1  647  48.553  49.759  50.693  1.3660 -0.1945 -0.5334
  216SOL    HW2  648  48.696  49.801  50.704 -0.4241 -0.7075  2.6590
  217SOL     OW  649  51.158  49.470  48.886  0.1281 -0.1841  0.1335
  217SOL    HW1  650  51.247  49.504  48.882 -1.9077  0.2335  1.1523
  217SOL    HW2  651  51.123  49.507  48.965 -0.6985 -0.4292  0.3621
  218SOL     OW  652  49.191  49.891  50.273  0.1329 -0.5737 -0.1684
  218SOL    HW1  653  49.179  49.821  50.340  0.4898  0.9531 -0.3422
  218SOL    HW2  654  49.141  49.967  50.312  0.5246  0.8086 -0.4333
  219SOL     OW  655  48.766  50.579  49.844 -0.0663  0.3158 -0.1073
  219SOL    HW1  656  48.675  50.602  49.879  1.2268 -0.9024 -0.9296
  219SOL    HW2  657  48.752  50.559  49.749 -1.5484  0.2297 -0.3294
  220SOL     OW  658  49.970  49.145  51.332 -0.0626  0.0072 -0.4947
  220SOL    HW1  659  49.962  49.244  51.348 -0.8213  0.0429 -0.2627
  220SOL    HW2  660  49.877  49.117  51.317 -1.1505 -1.8793  0.5725
  221SOL     OW  661  49.895  48.602  50.958  0.0102  0.0125  0.3162
  221SOL    HW1  662  49.974  48.562  50.909 -0.8794  0.5884  0.4889
  221SOL    HW2  663  49.826  48.535  50.943  0.0035 -2.2642 -2.4547
  222SOL     OW  664  49.722  50.085  49.961 -0.2504  0.9412  0.3228
  222SOL    HW1  665  49.699  50.161  49.904  0.0637  1.7124  1.6376
  222SOL    HW2  666  49.796  50.050  49.909 -1.6563  1.5999 -1.8802
  223SOL     OW  667  50.409  48.479  50.632 -0.2454 -0.4236  0.3686
  223SOL    HW1  668  50.499  48.450  50.604 -1.1391 -0.3656 -0.4595
  223SOL    HW2  669  50.349  48.422  50.578  0.0439  2.3212 -0.0255
  224SOL     OW  670  50.526  50.743  50.571  0.0437  0.2821 -0.3423
  224SOL    HW1  671  50.478  50.810  50.622 -0.6417 -0.6822  0.4286
  224SOL    HW2  672  50.617  50.778  50.565 -1.6029  0.4198  1.6371
  225SOL     OW  673  51.320  49.318  49.872  0.5822  0.2447  0.1943
  225SOL    HW1  674  51.331  49.416  49.866  1.1024 -0.4069 -0.2035
  225SOL    HW2  675  51.347  49.286  49.785 -1.9715  0.5485 -1.1958
  226SOL     OW  676  51.205  49.495  49.318  0.1881 -0.0458  0.1466
  226SOL    HW1  677  51.218  49.578  49.366 -0.9527  0.0369 -0.8710
  226SOL    HW2  678  51.113  49.476  49.343  0.7728  0.5957 -0.1480
  227SOL     OW  679  49.616  50.993  50.207  0.2467 -0.3773  0.4809
  227SOL    HW1  680  49.597  51.089  50.179  1.1350  1.6468  0.7385
  227SOL    HW2  681  49.558  50.977  50.287  0.3848 -1.9214  1.5249
  228SOL     OW  682  49.940  48.546  49.301  0.8520 -0.6202 -1.0276
  228SOL    HW1  683  49.857  48.503  49.300  1.4827  1.0225 -0.7961
  228SOL    HW2  684  49.962  48.539  49.204 -1.3773 -2.3504 -0.7744
  229SOL     OW  685  48.822  49.728  49.094  0.0726  0.1581 -0.2980
  229SOL    HW1  686  48.863  49.780  49.166  0.8860 -1.8767  0.2657
  229SOL    HW2  687  48.885  49.651  49.089  0.1520 -0.1780  1.3214
  230SOL     OW  688  50.108  49.403  49.208  0.4145  0.3744 -0.3334
  230SOL    HW1  689  50.076  49.330  49.273  1.0546 -1.9435  1.5920
  230SOL    HW2  690  50.073  49.377  49.117  1.6895  0.9571  0.3610
  231SOL     OW  691  49.477  51.582  49.392 -0.2120  0.0206  0.2471
  231SOL    HW1  692  49.460  51.500  49.344  1.3990  1.3309 -0.4830
  231SOL    HW2  693  49.430  51.651  49.344  2.7393  1.8348 -1.7176
  232SOL     OW  694  49.565  50.768  50.043 -0.1021 -0.4899 -0.0005
  232SOL    HW1  695  49.587  50.856  50.082 -1.7286  0.2726 -1.0611
  232SOL    HW2  696  49.480  50.789  50.003  0.0395 -1.1270 -0.2425
  233SOL     OW  697  49.259  51.517  50.556 -0.1070  0.1183 -0.2232
  233SOL    HW1  698  49.260  51.432  50.509  0.3430  1.9145  0.5837
  233SOL    HW2  699  49.320  51.573  50.511 -1.6040 -2.6121  0.0362
  234SOL     OW  700  49.984  49.735  51.633 -0.2194 -0.3831  0.1261
  234SOL    HW1  701  50.064  49.709  51.684 -2.5460 -0.3907 -1.0242
  234SOL    HW2  702  49.912  49.669  51.645 -0.6319  1.3294 -0.1833
  235SOL     OW  703  49.049  49.225  50.802 -0.7677  0.6073  0.6861
  235SOL    HW1  704  48.950  49.227  50.788 -0.5622  1.2983  2.6159
  235SOL    HW2  705  49.079  49.299  50.744 -0.2251  2.1504 -4.2958
  236SOL     OW  706  49.420  51.031  51.118 -0.4206  0.6145 -0.2496
  236SOL    HW1  707  49.442  51.118  51.153 -0.5361  0.4335 -0.9535
  236SOL    HW2  708  49.334  51.052  51.076  0.3255  1.8392  0.8251
  237SOL     OW  709  48.632  49.233  49.981  0.4167  0.5982 -0.0258
  237SOL    HW1  710  48.698  49.202  50.047  0.0576  2.0368 -1.5696
  237SOL    HW2  711  48.686  49.270  49.910  0.7564 -0.3250  2.2502
  238SOL     OW  712  50.786  49.615  51.421  0.1489 -0.1282  0.2329
  238SOL    HW1  713  50.852  49.545  51.436 -2.2440 -0.1414 -0.3867
  238SOL    HW2  714  50.720  49.574  51.359  0.7034 -1.5630 -0.1073
  239SOL     OW  715  51.090  50.321  50.728  0.3529 -0.0869 -0.1402
  239SOL    HW1  716  51.087  50.224  50.719  2.6946  1.7299 -0.1217
  239SOL    HW2  717  51.023  50.344  50.795 -0.9249 -1.5929  0.4299
  240SOL     OW  718  50.704  49.347  49.057  0.0493 -0.6700  0.0411
  240SOL    HW1  719  50.688  49.306  49.145  0.5584 -0.4078 -0.7060
  240SOL    HW2  720  50.761  49.426  49.080 -0.3476 -0.5060  0.1001
  241SOL     OW  721  49.158  50.408  49.423  0.3244 -0.4398  0.2739
  241SOL    HW1  722  49.097  50.461  49.369 -1.3528  0.2180  0.2366
  241SOL    HW2  723  49.108  50.320  49.437 -0.0717 -0.4414 -0.9803
  242SOL     OW  724  49.377  48.602  49.901  0.1892  0.4874  0.5620
  242SOL    HW1  725  49.417  48.685  49.931 -2.2109  0.3550 -1.2618
  242SOL    HW2  726  49.323  48.632  49.826  2.6438  0.3767 -0.6299
  243SOL     OW  727  49.484  48.386  50.024 -0.0246  0.2655 -0.0865
  243SOL    HW1  728  49.492  48.318  49.955 -0.8537  0.9505  0.4299
  243SOL    HW2  729  49.441  48.464  49.979  0.6580 -0.5770 -0.1542
  244SOL     OW  730  49.934  50.701  48.823  0.2843 -0.3118 -0.0284
  244SOL    HW1  731  49.938  50.733  48.916 -1.7989 -0.6867 -0.9558
  244SOL    HW2  732  49.902  50.608  48.833  0.0279 -0.6190 -0.6043
  245SOL     OW  733  51.290  51.112  50.565  0.5460  0.1040  0.2503
  245SOL    HW1  734  51.244  51.153  50.488  2.1515  0.6690  0.8093
  245SOL    HW2  735  51.324  51.028  50.529 -0.1958 -0.7489  0.0580
  246SOL     OW  736  50.906  49.867  51.394  0.5014 -0.1433  0.1528
  246SOL    HW1  737  50.851  49.925  51.448 -1.6549 -0.4260 -0.8349
  246SOL    HW2  738  50.865  49.780  51.416 -0.2031  0.9879  0.5645
  247SOL     OW  739  49.972  48.569  49.014 -0.4214  0.4926 -0.6241
  247SOL    HW1  740  50.028  48.647  49.030 -3.2207  0.7655  2.7381
  247SOL    HW2  741  49.889  48.614  48.984  1.5566  1.2484  0.1292
  248SOL     OW  742  49.002  49.061  49.527 -0.8858 -0.2157 -0.2404
  248SOL    HW1  743  48.964  49.006  49.599  1.1015  2.4594 -0.0016
  248SOL    HW2  744  49.036  49.136  49.580 -0.4712 -0.4865  0.9935
  249SOL     OW  745  49.678  48.366  50.413  0.3012  0.5280  0.3958
  249SOL    HW1  746  49.699  48.272  50.406  1.0989 -0.6958 -1.3331
  249SOL    HW2  747  49.748  48.405  50.356 -2.7155 -0.4185 -0.4063
  250SOL     OW  748  48.882  48.945  50.411  0.3874 -0.4346  0.7139
  250SOL    HW1  749  48.873  48.920  50.505  1.3211 -2.4658 -1.2783
  250SOL    HW2  750  48.921  48.864  50.377  1.4668  0.8547  1.2392
  251SOL     OW  751  49.626  49.830  51.391 -0.7595  0.2796  0.4007
  251SOL    HW1  752  49.604  49.741  51.356  0.7866  0.3637  0.9172
  251SOL    HW2  753  49.675  49.814  51.473  1.0198  0.2660 -2.2120
  252SOL     OW  754  50.581  50.572  49.802 -0.0767  0.0164  0.1354
  252SOL    HW1  755  50.530  50.544  49.882 -0.2875  0.5019  0.3433
  252SOL    HW2  756  50.535  50.653  49.762 -0.8914 -0.1675  1.2557
  253SOL     OW  757  50.989  49.190  49.690 -0.3880 -0.5364 -0.1121
  253SOL    HW1  758  51.019  49.132  49.763  1.6863  0.5182  0.2609
  253SOL    HW2  759  51.001  49.280  49.725 -2.5788 -2.4658  0.0427
  254SOL     OW  760  50.512  48.601  50.879  0.4998  0.2375 -0.4908
  254SOL    HW1  761  50.460  48.541  50.818 -0.7152  0.9081  0.3330
  254SOL    HW2  762  50.570  48.657  50.823  0.5169  0.6903 -0.2004
  255SOL     OW  763  49.943  50.221  51.027  0.2668  0.0879 -0.3646
  255SOL    HW1  764  49.914  50.315  51.030 -0.8182 -1.8712 -1.1041
  255SOL    HW2  765  49.926  50.202  50.935  0.1612 -0.7546  0.9788
  256SOL     OW  766  50.006  51.460  50.892  0.0753 -0.1641 -0.2146
  256SOL    HW1  767  49.913  51.459  50.917  0.2605  0.3695  0.2050
  256SOL    HW2  768  50.048  51.387  50.939  0.0505 -0.0530 -0.5769
  257SOL     OW  769  50.459  50.936  49.145 -0.7404 -0.5159 -0.0854
  257SOL    HW1  770  50.541  50.942  49.201 -1.5463 -0.3779  0.2778
  257SOL    HW2  771  50.503  50.963  49.063 -0.0284 -1.7213  2.8987
  258SOL     OW  772  50.744  49.845  49.331  0.2702 -0.5068 -0.1756
  258SOL    HW1  773  50.649  49.842  49.343  2.7856  0.3133 -0.4856
  258SOL    HW2  774  50.776  49.849  49.420  0.7203 -0.5367 -0.3959
  259SOL     OW  775  49.172  50.213  50.350 -0.1180 -0.0334 -0.5288
  259SOL    HW1  776  49.142  50.147  50.413 -0.5562  0.4510 -1.2777
  259SOL    HW2  777  49.093  50.240  50.300  1.5178 -0.3692  0.8079
  260SOL     OW  778  50.166  48.987  51.072 -0.4546 -0.1750 -0.4596
  260SOL    HW1  779  50.212  49.027  51.144  0.6633 -0.5129  0.1712
  260SOL    HW2  780  50.231  48.914  51.047 -1.0850  0.4159  0.4736
  261SOL     OW  781  48.934  50.484  51.154 -0.3672 -0.0746 -0.1469
  261SOL    HW1  782  48.976  50.418  51.208 -0.2129 -1.4161  0.9514
  261SOL    HW2  783  48.877  50.423  51.096  1.7475  0.5975  1.9171
  262SOL     OW  784  49.695  49.100  51.331 -0.1714  0.0333 -0.3284
  262SOL    HW1  785  49.625  49.148  51.286  0.3052 -1.9001  0.6721
  262SOL    HW2  786  49.670  49.008  51.313 -0.3338  0.9359 -1.5724
  263SOL     OW  787  50.649  48.450  49.675  0.0751  0.3083  0.0930
  263SOL    HW1  788  50.605  48.422  49.594  3.1581  1.9811 -0.5833
  263SOL    HW2  789  50.598  48.531  49.697  0.0806 -0.2419 -1.1116
  264SOL     OW  790  50.508  50.973  51.337 -0.7187 -0.1711  0.1879
  264SOL    HW1  791  50.541  51.018  51.259 -0.3356 -1.1355  1.0755
  264SOL    HW2  792  50.487  50.882  51.306 -0.8215  0.2098  0.5995
  265SOL     OW  793  48.954  49.764  49.332 -0.1854  0.2234 -0.1557
  265SOL    HW1  794  48.979  49.826  49.400 -1.8229 -3.2368 -0.5166
  265SOL    HW2  795  49.037  49.725  49.303  1.2015  0.2224 -1.0239
  266SOL     OW  796  49.803  51.357  49.296 -0.4898  0.1659 -0.2960
  266SOL    HW1  797  49.781  51.356  49.387  0.4599 -2.3729 -0.9424
  266SOL    HW2  798  49.727  51.313  49.252  0.3970  0.8102  0.3123
  267SOL     OW  799  49.033  50.021  49.194  0.3265  0.2395  0.8009
  267SOL    HW1  800  48.940  50.008  49.225  1.6266  0.1915 -0.4856
  267SOL    HW2  801  49.036  50.112  49.162 -0.4880  0.7124  1.9007
  268SOL     OW  802  50.317  49.006  49.984 -0.2056  0.4002  0.0937
  268SOL    HW1  803  50.338  48.913  50.022 -0.8187  1.5202  1.4152
  268SOL    HW2  804  50.318  49.056  50.064  0.6043  1.5777  1.2911
  269SOL     OW  805  49.504  50.640  50.275 -0.6199 -0.1637 -0.0004
  269SOL    HW1  806  49.493  50.554  50.231 -0.1982  1.1423 -1.6706
  269SOL    HW2  807  49.537  50.689  50.198 -0.6709 -1.9988  0.0347
  270SOL     OW  808  48.710  50.501  49.596 -0.1569 -0.0799 -0.3347
  270SOL    HW1  809  48.692  50.414  49.639  1.4202  0.3705 -1.9785
  270SOL    HW2  810  48.677  50.486  49.503  1.3731 -1.0112  0.1806
  271SOL     OW  811  49.367  48.711  49.064 -0.3979  0.0050  0.0605
  271SOL    HW1  812  49.288  48.748  49.104 -0.6224  0.6325 -0.6160
  271SOL    HW2  813  49.335  48.637  49.012 -0.4646  1.3243  0.5393
  272SOL     OW  814  50.610  50.242  49.629 -0.5367 -0.2810 -0.0136
  272SOL    HW1  815  50.700  50.256  49.600 -1.4434 -1.0051  0.4551
  272SOL    HW2  816  50.607  50.280  49.717 -0.3586 -1.2398  0.7017
  273SOL     OW  817  49.550  48.903  49.104  0.0638  0.1228  0.2260
  273SOL    HW1  818  49.518  48.811  49.086 -0.4500 -1.2547  0.9180
  273SOL    HW2  819  49.489  48.943  49.175 -0.9047 -1.1225  0.4366
  274SOL     OW  820  48.329  50.481  50.150  0.4245  0.0705  0.0840
  274SOL    HW1  821  48.292  50.403  50.186  0.0407 -1.0646 -0.6348
  274SOL    HW2  822  48.408  50.446  50.106 -1.8172  0.0222  1.2194
  275SOL     OW  823  51.293  50.198  49.704  0.1215  0.2339  0.0748
  275SOL    HW1  824  51.365  50.136  49.688 -2.2120 -0.3552  0.7094
  275SOL    HW2  825  51.248  50.211  49.617  0.8249  0.8308 -0.2459
  276SOL     OW  826  49.834  51.295  49.625 -0.1905  0.1046  0.3254
  276SOL    HW1  827  49.759  51.244  49.590  0.8188  0.6880  0.9069
  276SOL    HW2  828  49.859  51.249  49.706 -0.1184  2.1199 -1.0250
  277SOL     OW  829  49.572  51.263  50.937  0.4309 -0.7374 -0.2926
  277SOL    HW1  830  49.529  51.177  50.909  1.2170 -1.1009  0.8272
  277SOL    HW2  831  49.520  51.335  50.889 -1.2635 -0.3055 -0.3359
  278SOL     OW  832  49.409  49.431  51.110  0.1054 -0.1052  0.3228
  278SOL    HW1  833  49.327  49.489  51.112 -1.5239  0.1027 -1.2524
  278SOL    HW2  834  49.444  49.454  51.019  0.0600  2.1312 -0.9898
  279SOL     OW  835  50.018  51.321  48.902  0.0198 -0.0419  0.1549
  279SOL    HW1  836  50.055  51.324  48.993 -2.5553 -2.2147 -2.1027
  279SOL    HW2  837  49.945  51.383  48.911  1.4022  2.3658  1.3553
  280SOL     OW  838  49.387  49.767  48.914  0.0367  0.8262  0.1035
  280SOL    HW1  839  49.469  49.808  48.883 -0.9514 -0.3295  0.4029
  280SOL    HW2  840  49.394  49.672  48.889 -0.7103  1.7079  0.4574
  281SOL     OW  841  50.517  50.911  50.296 -0.2851 -0.1402 -0.0876
  281SOL    HW1  842  50.524  50.997  50.253  0.5598 -1.9723  0.5643
  281SOL    HW2  843  50.496  50.928  50.388 -3.3624  0.0851 -0.0565
  282SOL     OW  844  49.780  49.525  51.690 -0.6854 -0.0204  0.3187
  282SOL    HW1  845  49.864  49.480  51.716 -2.1777 -2.2202  0.0109
  282SOL    HW2  846  49.729  49.457  51.645 -1.4919  0.9156  0.2326
  283SOL     OW  847  50.948  48.823  49.327 -0.1046  0.4533 -0.3215
  283SOL    HW1  848  50.991  48.845  49.414 -0.9026  0.7565 -1.5141
  283SOL    HW2  849  51.025  48.833  49.265  1.2844  0.6586  1.1527
  284SOL     OW  850  50.550  49.226  48.480 -0.2528  0.1952  0.0702
  284SOL    HW1  851  50.575  49.134  48.466  0.4109 -0.6350 -0.0078
  284SOL    HW2  852  50.603  49.256  48.557  0.3379 -0.0582 -2.9538
  285SOL     OW  853  50.328  51.206  50.734 -0.5122  0.2453 -0.0903
  285SOL    HW1  854  50.321  51.297  50.764 -1.2577 -0.3737 -1.3154
  285SOL    HW2  855  50.306  51.212  50.638  0.5241 -0.1993  0.4195
  286SOL     OW  856  49.293  48.970  50.460  0.6576 -0.3381 -0.2999
  286SOL    HW1  857  49.259  48.965  50.554 -0.5881  0.4577 -0.8960
  286SOL    HW2  858  49.216  48.951  50.403  0.2343 -0.6257 -1.3010
  287SOL     OW  859  49.519  50.099  49.150  0.2950 -0.2873  0.7765
  287SOL    HW1  860  49.481  50.183  49.129 -0.2616 -1.0552 -0.0595
  287SOL    HW2  861  49.616  50.117  49.142 -0.2849  1.3475  0.8435
  288SOL     OW  862  49.276  49.233  50.392  0.3611  0.4392  0.0289
  288SOL    HW1  863  49.338  49.285  50.448 -0.4009  0.7974  1.0831
  288SOL    HW2  864  49.291  49.139  50.421 -0.3033 -0.9940  0.2147
  289SOL     OW  865  50.666  50.613  48.544 -0.3663 -0.4449  0.5105
  289SOL    HW1  866  50.587  50.648  48.491 -0.5132 -0.5873  0.6484
  289SOL    HW2  867  50.662  50.661  48.631 -1.4749  0.7100  0.2364
  290SOL     OW  868  49.787  48.778  48.908  1.1236  0.5641  0.3995
  290SOL    HW1  869  49.867  48.815  48.860 -1.6342  0.7536  0.8310
  290SOL    HW2  870  49.713  48.819  48.864 -1.4484  1.1072 -0.5598
  291SOL     OW  871  50.390  50.641  50.352  0.1456 -0.0170  0.3922
  291SOL    HW1  872  50.402  50.724  50.304 -0.8808 -1.2321  2.3748
  291SOL    HW2  873  50.456  50.639  50.424  0.9902 -0.2362 -1.8727
  292SOL     OW  874  50.606  50.363  51.105 -0.3205  0.3912  0.2727
  292SOL    HW1  875  50.532  50.411  51.065  0.0411 -2.0597  1.0162
  292SOL    HW2  876  50.592  50.278  51.061  0.3847  0.8187  0.3292
  293SOL     OW  877  50.889  49.279  49.424 -0.3330  0.2920  0.2403
  293SOL    HW1  878  50.869  49.200  49.368  0.6215  1.2733  0.4649
  293SOL    HW2  879  50.920  49.243  49.508 -1.6177 -1.2288  0.6250
  294SOL     OW  880  49.013  49.394  49.929  0.3828  0.1141 -0.0735
  294SOL    HW1  881  49.051  49.368  50.016 -2.2351  1.9757 -0.9155
  294SOL    HW2  882  48.936  49.444  49.957  0.1896  0.0456  0.9762
  295SOL     OW  883  49.120  50.337  48.615 -0.3494 -0.3506 -0.7608
  295SOL    HW1  884  49.099  50.258  48.565  1.5332 -0.1566 -0.0384
  295SOL    HW2  885  49.126  50.302  48.706  0.0945 -0.4026 -2.6286
  296SOL     OW  886  50.907  49.477  50.664  0.3998  0.3754 -0.0421
  296SOL    HW1  887  50.989  49.501  50.715  1.7096 -2.0276 -1.2535
  296SOL    HW2  888  50.881  49.390  50.700 -1.6536  1.7725  0.6706
  297SOL     OW  889  51.001  50.381  49.005  0.1910 -0.3017  0.3427
  297SOL    HW1  890  50.979  50.435  48.926 -1.1778 -0.3621  1.3677
  297SOL    HW2  891  50.912  50.341  49.023  1.8053 -0.8059 -1.6690
  298SOL     OW  892  50.714  51.480  50.300 -0.0630 -0.6527 -0.3967
  298SOL    HW1  893  50.712  51.461  50.199 -0.7515 -2.8291  0.0922
  298SOL    HW2  894  50.620  51.500  50.311  0.1572  0.6701  0.0704
  299SOL     OW  895  49.795  49.043  48.513 -0.5133  0.3516  0.1921
  299SOL    HW1  896  49.765  49.123  48.560  0.3084 -1.4695  0.3403
  299SOL    HW2  897  49.887  49.047  48.537 -2.9384 -0.4274  1.1865
  300SOL     OW  898  50.169  50.710  48.516  0.2097  0.1755 -0.0427
  300SOL    HW1  899  50.161  50.627  48.566  1.5937 -0.3956 -0.0655
  300SOL    HW2  900  50.120  50.781  48.562 -0.2299  1.6636 -0.1490
  301SOL     OW  901  51.013  49.025  49.112  0.4819 -0.3738  0.1878
  301SOL    HW1  902  50.945  49.045  49.181 -0.4028 -0.5502  0.2781
  301SOL    HW2  903  51.097  49.026  49.164 -0.9817  1.1601  0.5517
  302SOL     OW  904  51.309  50.046  50.904  0.2148 -0.1760 -0.1545
  302SOL    HW1  905  51.361  49.964  50.890 -0.0268 -0.4907 -0.1845
  302SOL    HW2  906  51.226  50.035  50.852  1.6743  2.1022 -0.0206
  303SOL     OW  907  49.006  50.771  49.354  0.3328 -0.0243  0.0644
  303SOL    HW1  908  48.973  50.792  49.260  0.2289 -1.3325 -1.8214
  303SOL    HW2  909  49.104  50.761  49.344 -1.1678 -0.5204 -1.2626
  304SOL     OW  910  51.444  49.816  49.048 -0.2618  0.2151 -0.1888
  304SOL    HW1  911  51.442  49.828  49.147  0.5667 -0.5910  0.3892
  304SOL    HW2  912  51.539  49.798  49.038  0.4275 -0.1636  0.1820
  305SOL     OW  913  51.078  48.661  49.688 -0.3028  0.3003 -0.0691
  305SOL    HW1  914  51.142  48.715  49.743 -0.8184 -0.1408  0.5335
  305SOL    HW2  915  51.019  48.620  49.754 -0.0690 -0.4388 -0.0955
  306SOL     OW  916  50.217  51.409  50.233 -0.1824 -0.1300  0.0309
  306SOL    HW1  917  50.170  51.496  50.237 -0.6873 -0.9178  0.2899
  306SOL    HW2  918  50.142  51.347  50.232 -0.6126  0.5865  1.0945
  307SOL     OW  919  49.590  50.139  48.374  0.0408 -0.4552  0.1484
  307SOL    HW1  920  49.516  50.172  48.429 -0.8410  1.8474  0.3492
  307SOL    HW2  921  49.644  50.219  48.369  0.7832 -1.3445  3.0440
  308SOL     OW  922  48.357  49.803  50.402  0.1365 -0.3319 -0.5691
  308SOL    HW1  923  48.274  49.798  50.351 -0.2255 -0.9455  2.3077
  308SOL    HW2  924  48.410  49.724  50.377  0.8888  0.8790 -0.4295
  309SOL     OW  925  50.019  48.883  48.799 -0.1631  0.0064 -0.2574
  309SOL    HW1  926  50.104  48.840  48.800 -0.2945 -0.6241  2.1755
  309SOL    HW2  927  50.038  48.966  48.753  1.5913 -0.6128  0.4210
  310SOL     OW  928  50.555  51.187  49.421 -0.3444 -0.3573  0.4082
  310SOL    HW1  929  50.604  51.223  49.499 -1.3527  0.1033 -0.2560
  310SOL    HW2  930  50.488  51.259  49.408  0.3883 -0.2886  0.8375
  311SOL     OW  931  51.158  49.795  51.310  0.0739 -0.3706 -0.0412
  311SOL    HW1  932  51.211  49.840  51.377 -0.1270  0.4161 -0.9176
  311SOL    HW2  933  51.067  49.830  51.329  0.4200  0.4461  1.4421
  312SOL     OW  934  50.792  49.038  50.852  0.1932  0.0595  0.0202
  312SOL    HW1  935  50.721  49.109  50.855  2.2648  1.7487  0.8171
  312SOL    HW2  936  50.872  49.096  50.834  0.7963  0.2633 -0.0494
  313SOL     OW  937  50.861  49.583  49.633 -0.2174 -0.2096  0.0293
  313SOL    HW1  938  50.790  49.517  49.624  0.6287  0.4204  0.1588
  313SOL    HW2  939  50.824  49.672  49.655 -0.4005 -0.4211  0.8147
  314SOL     OW  940  50.095  51.163  48.685 -0.3945  0.6537  0.0157
  314SOL    HW1  941  50.192  51.172  48.677 -1.0959 -0.9363  2.0859
  314SOL    HW2  942  50.077  51.215  48.765  0.0830  0.9416 -0.3851
  315SOL     OW  943  49.439  49.928  50.183  0.5356 -0.9282  0.2957
  315SOL    HW1  944  49.344  49.915  50.217 -0.1599 -1.5177 -0.6626
  315SOL    HW2  945  49.421  49.988  50.108  0.7380 -1.1665 -0.3191
  316SOL     OW  946  48.295  50.031  50.100  0.2850 -0.6113 -0.0895
  316SOL    HW1  947  48.282  49.942  50.061  2.5442  0.9600 -1.1298
  316SOL    HW2  948  48.391  50.033  50.114  0.7969 -0.2465  0.6736
  317SOL     OW  949  49.918  48.887  49.175  0.1207 -0.4735 -0.0894
  317SOL    HW1  950  49.867  48.832  49.115 -1.0155  0.8577 -0.3195
  317SOL    HW2  951  50.007  48.844  49.171 -2.2840  0.4268 -2.2646
  318SOL     OW  952  49.109  51.425  49.651  0.2712  0.0904  0.5517
  318SOL    HW1  953  49.132  51.461  49.738  1.0036 -3.3971  1.9759
  318SOL    HW2  954  49.055  51.349  49.671 -0.1327  0.7349 -2.1235
  319SOL     OW  955  49.974  49.737  50.951 -0.3488  0.1129  0.4744
  319SOL    HW1  956  49.961  49.747  50.856  0.9277  0.1424  3.1068
  319SOL    HW2  957  50.016  49.651  50.953  0.1348  0.2796 -0.7537
  320SOL     OW  958  50.563  49.014  50.219  0.1294  0.1690 -0.3457
  320SOL    HW1  959  50.479  49.061  50.234  1.9412  0.7055  3.0686
  320SOL    HW2  960  50.622  49.090  50.204 -0.6302  0.3508 -2.8378
  321SOL     OW  961  50.157  50.475  49.288 -1.3643 -0.5875 -0.3394
  321SOL    HW1  962  50.163  50.420  49.371 -0.2400 -0.1148 -0.4487
  321SOL    HW2  963  50.167  50.567  49.318 -0.1777 -0.5797 -0.7328
  322SOL     OW  964  51.324  49.270  49.263  0.0888  0.0547  0.6517
  322SOL    HW1  965  51.417  49.287  49.284  0.5048  0.2635  2.4361
  322SOL    HW2  966  51.287  49.363  49.271  0.7112  0.5833  0.4445
  323SOL     OW  967  50.758  49.781  50.819  0.1809  0.0923 -0.4677
  323SOL    HW1  968  50.757  49.879  50.817  2.1028 -1.0551 -0.8639
  323SOL    HW2  969  50.807  49.756  50.740 -3.1891 -0.3228  2.2161
  324SOL     OW  970  50.464  50.716  51.241  0.1814 -0.1559 -1.0981
  324SOL    HW1  971  50.369  50.710  51.208  0.1952 -5.5522 -4.7244
  324SOL    HW2  972  50.511  50.721  51.153 -0.7843  3.7387 -0.7430
  325SOL     OW  973  51.308  49.600  51.058 -0.0612 -0.0703  0.0520
  325SOL    HW1  974  51.241  49.556  51.113  0.0389 -2.0265 -2.5136
  325SOL    HW2  975  51.266  49.592  50.970  0.1865  0.4572 -0.1105
  326SOL     OW  976  50.586  50.117  50.940 -0.3915 -0.9455  0.1397
  326SOL    HW1  977  50.671  50.122  50.886 -2.2648 -1.7701 -0.2882
  326SOL    HW2  978  50.603  50.041  51.003  1.4099 -0.9757  0.2020
  327SOL     OW  979  48.934  50.268  50.227 -0.5037 -0.1121  0.7532
  327SOL    HW1  980  48.865  50.293  50.291  1.7487 -0.3841  0.8629
  327SOL    HW2  981  48.920  50.338  50.159 -1.3477 -1.2451  2.9095
  328SOL     OW  982  49.320  51.191  49.778 -0.2248 -0.2678 -0.5256
  328SOL    HW1  983  49.347  51.240  49.700 -0.1008  0.7655 -0.0970
  328SOL    HW2  984  49.271  51.116  49.745  2.1374  0.9039 -1.4354
  329SOL     OW  985  50.077  50.282  48.586 -0.6293 -0.5524  0.0921
  329SOL    HW1  986  50.042  50.341  48.518  0.7199 -1.0393  0.2687
  329SOL    HW2  987  50.157  50.240  48.542  0.1857  0.4974  0.0340
  330SOL     OW  988  50.077  48.506  50.772 -0.1913 -0.4305 -0.6523
  330SOL    HW1  989  50.083  48.465  50.683  1.1483  0.3497 -0.2596
  330SOL    HW2  990  50.113  48.596  50.757  0.4829  0.0906 -1.0962
  331SOL     OW  991  51.592  49.300  50.184 -0.3590 -0.1268  0.4668
  331SOL    HW1  992  51.662  49.307  50.253 -0.2941 -0.4916  1.2575
  331SOL    HW2  993  51.538  49.382  50.191  0.7338 -0.4254 -0.9941
  332SOL     OW  994  49.375  49.440  48.568  0.1766  0.5691 -0.3960
  332SOL    HW1  995  49.420  49.516  48.526 -0.9777 -3.7608  1.8058
  332SOL    HW2  996  49.434  49.367  48.558  0.3012 -0.0690  0.3007
  333SOL     OW  997  50.685  51.000  49.274 -0.1351 -0.4963  0.2718
  333SOL    HW1  998  50.770  51.018  49.324 -0.3796 -0.2916  1.0640
  333SOL    HW2  999  50.639  51.082  49.303  0.5079 -0.8285  2.2646
  334SOL     OW 1000  48.278  49.764  49.981 -0.1521  0.1038 -0.0611
  334SOL    HW1 1001  48.199  49.756  49.926  0.8073 -0.2389 -2.7401
  334SOL    HW2 1002  48.308  49.672  49.987 -0.7798  2.2855 -0.9409
  335SOL     OW 1003  50.739  49.215  51.198 -0.1562 -0.0257 -0.1141
  335SOL    HW1 1004  50.801  49.199  51.271 -1.7935 -0.6678 -0.7791
  335SOL    HW2 1005  50.676  49.145  51.219  1.1095 -0.3970 -0.3288
  336SOL     OW 1006  50.229  49.496  48.837  0.4825 -0.0855 -0.0304
  336SOL    HW1 1007  50.317  49.471  48.871  3.3920  1.2648 -1.3081
  336SOL    HW2 1008  50.176  49.502  48.917  2.4034 -1.3915 -1.8059
  337SOL     OW 1009  49.458  48.507  50.270 -0.5596  0.0431  0.0259
  337SOL    HW1 1010  49.450  48.445  50.195 -1.8986 -1.9524 -0.0608
  337SOL    HW2 1011  49.514  48.460  50.335 -1.2626  0.4148 -1.7234
  338SOL     OW 1012  49.369  49.961  49.769  0.1807  1.1797  0.2093
  338SOL    HW1 1013  49.458  49.915  49.791  0.1386 -0.0253  0.4242
  338SOL    HW2 1014  49.306  49.893  49.792 -0.1309 -0.0319 -0.3581
  339SOL     OW 1015  50.168  48.775  50.808 -0.1052  0.4402  0.0711
  339SOL    HW1 1016  50.101  48.812  50.866  1.0346  1.6089 -0.0970
  339SOL    HW2 1017  50.250  48.792  50.859 -0.9139 -0.6156 -0.2700
  340SOL     OW 1018  50.950  49.291  48.762 -0.0862 -0.2967  0.0414
  340SOL    HW1 1019  50.970  49.196  48.783 -0.7527  0.8478  0.2354
  340SOL    HW2 1020  51.019  49.344  48.805 -1.3081 -1.5463 -0.0656
  341SOL     OW 1021  50.215  51.614  49.944 -0.3668  0.0467 -0.0363
  341SOL    HW1 1022  50.219  51.658  49.856  0.3692 -0.5256  1.3917
  341SOL    HW2 1023  50.300  51.643  49.982 -0.8057  0.3858  0.9460
  342SOL     OW 1024  49.872  49.972  51.725  0.1396  0.0800 -0.2345
  342SOL    HW1 1025  49.875  50.041  51.656 -0.2545  0.0064 -1.7801
  342SOL    HW2 1026  49.920  49.890  51.692 -1.0724 -0.5447  0.2405
  343SOL     OW 1027  51.184  50.163  49.443 -0.0463 -0.5525 -0.4442
  343SOL    HW1 1028  51.272  50.131  49.430 -1.3540 -0.1613  1.3919
  343SOL    HW2 1029  51.143  50.162  49.357  1.4403 -1.3864 -0.3781
  344SOL     OW 1030  49.488  49.876  49.324 -0.3113  0.3825  0.3827
  344SOL    HW1 1031  49.419  49.846  49.259  0.3629 -0.1697  2.5149
  344SOL    HW2 1032  49.564  49.901  49.270 -0.3087 -0.3004 -0.0657
  345SOL     OW 1033  50.017  51.376  50.525 -0.4346 -0.2352  0.4035
  345SOL    HW1 1034  50.011  51.474  50.536 -0.9797 -1.6850 -0.2400
  345SOL    HW2 1035  49.931  51.356  50.481  0.0953 -1.3497  1.3359
  346SOL     OW 1036  49.925  48.253  49.650 -0.0483 -0.1322  0.2551
  346SOL    HW1 1037  49.852  48.301  49.700  0.9371  0.5220  1.9241
  346SOL    HW2 1038  49.916  48.159  49.674 -1.0993 -1.0343 -2.3876
  347SOL     OW 1039  51.086  49.472  49.694 -0.2146  0.7884 -0.0401
  347SOL    HW1 1040  51.003  49.514  49.659  1.1804  0.6994  0.4234
  347SOL    HW2 1041  51.134  49.457  49.612 -1.5237  0.0461 -0.6170
  348SOL     OW 1042  50.106  50.167  50.651 -0.0349  0.4679 -0.1076
  348SOL    HW1 1043  50.183  50.146  50.702 -0.8976  0.9729 -0.0451
  348SOL    HW2 1044  50.140  50.226  50.585  0.3240 -0.3230  0.5081
  349SOL     OW 1045  50.931  49.943  49.824 -0.0213 -0.0616 -0.0566
  349SOL    HW1 1046  50.939  50.003  49.745  0.1000 -0.2038  0.9970
  349SOL    HW2 1047  50.836  49.956  49.851  1.5570  1.2524 -1.1400
  350SOL     OW 1048  48.685  50.477  48.990 -0.4760 -0.5578  0.1172
  350SOL    HW1 1049  48.732  50.444  48.910  0.8559 -2.7728  0.5982
  350SOL    HW2 1050  48.648  50.393  49.022 -0.5067  1.5889 -1.8692
  351SOL     OW 1051  51.387  50.731  49.824  0.0564  0.1904 -0.0620
  351SOL    HW1 1052  51.404  50.682  49.910  0.7195  1.8544  2.0649
  351SOL    HW2 1053  51.475  50.712  49.776  2.2556  0.3343  0.8427
  352SOL     OW 1054  50.529  50.015  49.148  0.2398 -0.2382 -0.1016
  352SOL    HW1 1055  50.483  50.089  49.190  1.3580  0.5197  1.3290
  352SOL    HW2 1056  50.534  50.037  49.055  1.0983  0.3196  0.7002
  353SOL     OW 1057  48.487  49.811  50.878  0.3608  0.5959 -0.0312
  353SOL    HW1 1058  48.473  49.905  50.892 -0.5641  1.8324  0.6611
  353SOL    HW2 1059  48.541  49.784  50.953 -1.3948  1.5162 -0.6297
  354SOL     OW 1060  48.906  51.127  49.456 -0.1795 -0.4929  0.0350
  354SOL    HW1 1061  48.845  51.180  49.401 -2.0397 -1.8680  1.5063
  354SOL    HW2 1062  48.995  51.159  49.425 -1.9210  1.4164 -0.1004
  355SOL     OW 1063  49.784  48.952  50.276  0.7785 -0.0150 -0.0834
  355SOL    HW1 1064  49.690  48.977  50.293 -0.5138  0.5154  1.4883
  355SOL    HW2 1065  49.786  48.862  50.316 -0.9235  1.7101  0.5819
  356SOL     OW 1066  49.276  49.893  48.362 -0.1940 -0.0432 -0.0127
  356SOL    HW1 1067  49.252  49.828  48.432  0.5339 -0.1307 -0.9627
  356SOL    HW2 1068  49.291  49.836  48.286  3.4226 -0.8552  0.0754
  357SOL     OW 1069  49.631  51.162  49.543  0.1759 -0.0417  0.6326
  357SOL    HW1 1070  49.587  51.099  49.602  2.6814  0.1687  0.5913
  357SOL    HW2 1071  49.637  51.111  49.463 -2.0201 -0.2889  1.3428
  358SOL     OW 1072  50.305  48.996  48.648  0.3455 -0.1506 -0.3581
  358SOL    HW1 1073  50.321  48.907  48.679 -0.0471  1.6654  0.0837
  358SOL    HW2 1074  50.358  49.047  48.711 -0.3517 -2.2143  0.0787
  359SOL     OW 1075  49.250  51.000  49.186  0.3670 -0.5197 -0.7180
  359SOL    HW1 1076  49.343  50.994  49.154  0.7336  0.5504  0.8448
  359SOL    HW2 1077  49.217  50.907  49.185 -0.0441 -0.6148  1.6830
  360SOL     OW 1078  50.465  49.551  49.539  0.3543 -0.1602 -0.1466
  360SOL    HW1 1079  50.374  49.578  49.559  0.8097  0.1361 -0.3982
  360SOL    HW2 1080  50.493  49.622  49.480  0.6756  1.2602  0.3690
  361SOL     OW 1081  49.704  50.547  51.589  0.3072  0.1408 -0.0818
  361SOL    HW1 1082  49.792  50.506  51.607 -0.9678  0.3411 -1.1944
  361SOL    HW2 1083  49.641  50.494  51.638  0.1728  1.8471  2.6449
  362SOL     OW 1084  50.282  50.326  50.442  0.0581  0.4204 -0.1723
  362SOL    HW1 1085  50.379  50.342  50.437  1.2884  1.9192 -2.0493
  362SOL    HW2 1086  50.279  50.279  50.353  3.2103 -0.0803 -0.8174
  363SOL     OW 1087  51.243  50.553  49.390 -0.2095 -0.0808  0.3753
  363SOL    HW1 1088  51.187  50.612  49.435  2.1780 -1.3421 -0.7776
  363SOL    HW2 1089  51.223  50.567  49.300  0.5077  0.9957  2.7621
  364SOL     OW 1090  50.024  49.386  49.623 -0.3158 -0.0326 -0.2064
  364SOL    HW1 1091  50.113  49.370  49.584  0.5966 -0.2239  0.2204
  364SOL    HW2 1092  49.974  49.451  49.569  0.8639 -0.2197 -2.1629
  365SOL     OW 1093  50.077  49.323  48.692 -0.2072  0.1841  0.3152
  365SOL    HW1 1094  49.995  49.330  48.746  1.7382 -0.3867 -1.2709
  365SOL    HW2 1095  50.139  49.387  48.735 -1.4911 -0.2537  0.8044
  366SOL     OW 1096  51.484  49.190  49.510 -0.0776  0.0305 -0.3903
  366SOL    HW1 1097  51.497  49.102  49.552 -0.2646  0.9536  0.0623
  366SOL    HW2 1098  51.388  49.211  49.505  0.5225 -1.9985 -0.0483
  367SOL     OW 1099  49.711  49.309  51.524  0.1709  0.0704  0.2842
  367SOL    HW1 1100  49.686  49.227  51.479  1.0837  0.3868 -1.4584
  367SOL    HW2 1101  49.803  49.310  51.494 -1.8922 -1.6503  0.4886
  368SOL     OW 1102  51.416  50.669  50.643 -0.2518 -0.9060  0.1591
  368SOL    HW1 1103  51.426  50.671  50.741 -1.1880  1.3512 -2.0937
  368SOL    HW2 1104  51.377  50.581  50.623 -0.6259  0.9496  1.9008
  369SOL     OW 1105  48.709  50.777  50.885 -0.0632 -0.1501  0.0629
  369SOL    HW1 1106  48.733  50.858  50.936  0.1230 -2.4782  0.4209
  369SOL    HW2 1107  48.790  50.729  50.904 -1.0273  0.8437 -0.0008
  370SOL     OW 1108  50.227  49.662  48.244  0.3184  0.5878  0.3472
  370SOL    HW1 1109  50.135  49.650  48.208  0.2449 -0.4981 -1.7505
  370SOL    HW2 1110  50.260  49.573  48.268  0.5906  2.0852  0.3548
  371SOL     OW 1111  50.269  48.344  50.464  0.2235  0.1433 -0.0110
  371SOL    HW1 1112  50.180  48.381  50.472  1.1976  0.1042  1.0190
  371SOL    HW2 1113  50.260  48.335  50.364 -0.5942  0.2143  2.1897
  372SOL     OW 1114  50.766  51.205  50.953  0.3339 -0.1853  0.3952
  372SOL    HW1 1115  50.781  51.191  50.857 -2.4842  0.2448  1.0430
  372SOL    HW2 1116  50.795  51.295  50.967 -0.8939 -0.1131 -2.0925
  373SOL     OW 1117  50.452  50.384  48.423 -0.5737  0.3454  0.1621
  373SOL    HW1 1118  50.439  50.474  48.400 -0.8288  1.2014  0.1100
  373SOL    HW2 1119  50.544  50.377  48.451 -1.4967  0.7196 -2.2432
  374SOL     OW 1120  51.189  50.761  49.642 -0.0203  0.0635 -0.0478
  374SOL    HW1 1121  51.261  50.747  49.716  0.1332 -1.1438  1.3940
  374SOL    HW2 1122  51.141  50.680  49.658 -1.0344 -0.8815 -1.8251
  375SOL     OW 1123  49.029  51.239  49.995  0.6803 -0.3661  0.1126
  375SOL    HW1 1124  48.957  51.232  50.063  1.8385 -0.6284 -1.7404
  375SOL    HW2 1125  49.053  51.333  49.983  0.3422 -2.5827 -0.3018
  376SOL     OW 1126  50.281  48.637  49.404 -0.3012 -0.1306 -0.1474
  376SOL    HW1 1127  50.198  48.601  49.372  0.5281 -0.1978  0.9414
  376SOL    HW2 1128  50.287  48.599  49.494 -0.2923 -0.2461  0.5979
  377SOL     OW 1129  49.927  49.632  48.821  0.1342 -0.1630  0.0345
  377SOL    HW1 1130  49.876  49.636  48.740  1.6143  0.2083  0.5895
  377SOL    HW2 1131  49.999  49.701  48.809 -1.6904 -0.7527 -0.2050
  378SOL     OW 1132  49.016  50.182  49.479  0.3921  0.1223 -0.3254
  378SOL    HW1 1133  49.007  50.086  49.458 -0.6085  1.2717  0.2781
  378SOL    HW2 1134  49.035  50.183  49.572  0.3054 -1.1480  0.1370
  379SOL     OW 1135  50.634  49.844  48.595 -0.0714  0.0396  0.0634
  379SOL    HW1 1136  50.566  49.861  48.528  0.2982 -0.0894  0.6481
  379SOL    HW2 1137  50.615  49.754  48.632 -1.6162  1.6336 -0.2156
  380SOL     OW 1138  49.669  49.249  48.685  0.1547  0.2738  0.0053
  380SOL    HW1 1139  49.651  49.187  48.761  1.7347  0.1189  1.3565
  380SOL    HW2 1140  49.746  49.302  48.718 -0.3159 -1.1324 -2.8452
  381SOL     OW 1141  49.660  50.826  48.423 -0.5358  0.0259 -0.7746
  381SOL    HW1 1142  49.740  50.774  48.415  0.4268  2.0998  0.3161
  381SOL    HW2 1143  49.686  50.909  48.385 -0.8712 -0.4219  1.4076
  382SOL     OW 1144  50.245  51.041  51.179 -0.5047  0.1376 -0.0887
  382SOL    HW1 1145  50.261  50.987  51.259  1.8619  1.1299 -0.1507
  382SOL    HW2 1146  50.339  51.061  51.158  0.0128 -1.7160 -0.2331
  383SOL     OW 1147  51.173  48.992  50.168 -0.4286  1.0017  0.1056
  383SOL    HW1 1148  51.215  48.931  50.230 -1.2772  0.1768 -0.7836
  383SOL    HW2 1149  51.252  49.046  50.137  0.3320 -0.0922 -0.4064
  384SOL     OW 1150  50.621  48.879  51.055 -0.5200  0.7447 -0.1180
  384SOL    HW1 1151  50.646  48.794  51.016  0.5616 -0.5372 -0.1773
  384SOL    HW2 1152  50.678  48.943  51.001 -1.0821 -1.4121  0.9641
  385SOL     OW 1153  49.757  50.322  50.633 -0.3064 -0.2952  0.3588
  385SOL    HW1 1154  49.695  50.374  50.583  0.0260  0.0503  2.6681
  385SOL    HW2 1155  49.826  50.385  50.648 -1.9316 -0.4592  0.4667
  386SOL     OW 1156  50.064  50.235  49.084 -0.8113 -0.2975  0.2484
  386SOL    HW1 1157  50.128  50.260  49.150 -1.0753 -1.3239  2.0325
  386SOL    HW2 1158  50.111  50.250  48.999  1.1063  0.0593  3.5306
  387SOL     OW 1159  49.361  50.074  49.443  0.2930 -0.2538  0.6388
  387SOL    HW1 1160  49.282  50.021  49.461  0.9336 -1.1289  0.8820
  387SOL    HW2 1161  49.418  50.005  49.399 -1.6566 -1.1185  0.0504
  388SOL     OW 1162  48.850  49.795  50.889 -0.2612 -0.0668 -0.2748
  388SOL    HW1 1163  48.926  49.783  50.952 -1.7539  1.5681 -2.2694
  388SOL    HW2 1164  48.831  49.888  50.902  2.5394 -1.2131  0.2599
  389SOL     OW 1165  49.303  49.438  49.082 -0.1415 -0.0686  0.2567
  389SOL    HW1 1166  49.339  49.462  48.994  0.3140 -0.1273 -0.2398
  389SOL    HW2 1167  49.247  49.360  49.067  1.5900  0.9970  0.7115
  390SOL     OW 1168  51.401  51.009  50.002  0.6363 -0.1838 -0.0351
  390SOL    HW1 1169  51.497  51.013  49.983 -1.2005  1.2317  0.6680
  390SOL    HW2 1170  51.386  51.103  50.028  0.9926  2.2564  1.1247
  391SOL     OW 1171  49.379  51.331  49.041  0.0981 -0.3333  0.3894
  391SOL    HW1 1172  49.295  51.375  49.017 -0.1191 -0.4900 -1.2808
  391SOL    HW2 1173  49.366  51.239  48.998 -2.7252 -1.0053  2.3466
  392SOL     OW 1174  50.121  50.673  50.098 -0.1103  0.2845  0.6450
  392SOL    HW1 1175  50.057  50.638  50.164  1.2608 -0.7505 -0.1487
  392SOL    HW2 1176  50.169  50.746  50.142  0.1429  0.4671 -0.3475
  393SOL     OW 1177  48.739  50.236  49.735  0.1143  0.0224 -0.2658
  393SOL    HW1 1178  48.813  50.244  49.793 -0.8759  0.5297  0.5705
  393SOL    HW2 1179  48.695  50.154  49.753  1.6487  0.7408 -1.6317
  394SOL     OW 1180  49.086  49.194  51.069  0.0213  0.0787  0.1522
  394SOL    HW1 1181  48.996  49.177  51.101 -1.4001 -0.3114  0.9126
  394SOL    HW2 1182  49.072  49.195  50.970 -2.8594 -0.0154  0.8693
  395SOL     OW 1183  49.277  50.759  49.341  0.2003 -0.3845  0.1086
  395SOL    HW1 1184  49.338  50.827  49.371 -0.2949 -0.5140  1.4362
  395SOL    HW2 1185  49.324  50.677  49.327 -0.7926  1.6907 -1.3338
  396SOL     OW 1186  50.726  48.610  50.142 -0.2539 -0.3368 -0.2561
  396SOL    HW1 1187  50.678  48.535  50.175  1.0425  0.1145  0.4597
  396SOL    HW2 1188  50.664  48.681  50.154 -0.1545 -1.9699 -0.2294
  397SOL     OW 1189  50.624  50.731  48.791 -0.6437 -0.1039  0.1296
  397SOL    HW1 1190  50.619  50.658  48.856 -1.7990 -2.5197 -1.6461
  397SOL    HW2 1191  50.525  50.749  48.780  0.2698 -1.0394 -0.6528
  398SOL     OW 1192  51.041  50.999  51.033 -0.0154 -0.2022  0.0035
  398SOL    HW1 1193  51.018  51.091  51.048  0.6647  0.7257 -0.9894
  398SOL    HW2 1194  51.102  51.006  50.954 -2.3348  0.1647  0.5789
  399SOL     OW 1195  49.669  48.460  49.237  0.4364 -0.0134  0.1547
  399SOL    HW1 1196  49.627  48.487  49.155  1.8737  0.0443  1.2168
  399SOL    HW2 1197  49.598  48.479  49.301  0.8033  1.6989 -2.4866
  400SOL     OW 1198  51.182  51.033  50.801  0.6512  0.0471 -0.2891
  400SOL    HW1 1199  51.118  51.000  50.735  0.3168  0.0216 -1.8778
  400SOL    HW2 1200  51.253  51.061  50.738 -0.9881 -1.4620 -0.7449
  401SOL     OW 1201  49.071  49.620  48.851  0.4916  0.2679  0.3748
  401SOL    HW1 1202  49.105  49.540  48.805 -0.1621  0.4313  0.2088
  401SOL    HW2 1203  49.026  49.669  48.778 -0.3708 -0.7498 -1.8633
  402SOL     OW 1204  49.103  50.117  48.426 -0.1449  0.3274 -0.1249
  402SOL    HW1 1205  49.060  50.127  48.340  0.8821 -0.4264  0.4514
  402SOL    HW2 1206  49.158  50.038  48.404 -0.6006 -0.0072 -2.8412
  403SOL     OW 1207  50.369  51.410  49.740  0.1313  0.1022 -0.2894
  403SOL    HW1 1208  50.467  51.400  49.732 -0.3831 -1.9303  1.1365
  403SOL    HW2 1209  50.359  51.431  49.836  1.4315 -2.0947  0.2887
  404SOL     OW 1210  50.283  48.755  48.802 -0.1298  0.6382 -0.3715
  404SOL    HW1 1211  50.289  48.763  48.899  0.4848 -0.0235 -1.3648
  404SOL    HW2 1212  50.320  48.666  48.797 -0.6688 -0.9533  1.0898
  405SOL     OW 1213  50.966  50.527  51.150 -0.5003  0.1520  0.0342
  405SOL    HW1 1214  50.943  50.622  51.142  0.6723 -2.5922  0.6534
  405SOL    HW2 1215  50.988  50.507  51.241 -2.4297  0.1238 -0.4511
  406SOL     OW 1216  49.527  50.445  49.093 -0.0630 -0.5110 -0.0510
  406SOL    HW1 1217  49.517  50.539  49.121 -0.5103  1.8315 -0.6198
  406SOL    HW2 1218  49.454  50.401  49.139  0.1378  2.6760 -0.6119
  407SOL     OW 1219  48.728  49.770  48.842  0.1153  0.3659 -0.0741
  407SOL    HW1 1220  48.767  49.758  48.932 -0.4060 -1.8908 -0.1746
  407SOL    HW2 1221  48.639  49.746  48.869 -0.7729 -3.8379 -0.6744
  408SOL     OW 1222  49.603  50.000  51.711 -0.1049  0.2099 -0.3877
  408SOL    HW1 1223  49.562  49.956  51.790  0.3111 -0.8497  0.7209
  408SOL    HW2 1224  49.702  49.981  51.729 -0.0635  3.0588  1.7187
  409SOL     OW 1225  50.225  49.725  49.566 -0.0500 -0.0016 -0.6000
  409SOL    HW1 1226  50.142  49.746  49.617 -0.3918  0.2403 -1.0794
  409SOL    HW2 1227  50.191  49.697  49.475  1.2089  1.3754 -1.1592
  410SOL     OW 1228  50.197  51.695  49.672  0.7000 -0.5249  0.2491
  410SOL    HW1 1229  50.199  51.623  49.611 -0.2164 -0.0089  2.7222
  410SOL    HW2 1230  50.118  51.743  49.651  1.8326  1.1445 -0.7832
  411SOL     OW 1231  51.043  50.959  49.034  0.4118 -0.1021  0.0463
  411SOL    HW1 1232  51.076  50.920  49.115 -0.0922  0.5659 -0.6130
  411SOL    HW2 1233  51.053  50.883  48.976 -1.4252  0.7641  1.9429
  412SOL     OW 1234  49.026  48.991  49.123  0.0887  0.4940  0.3458
  412SOL    HW1 1235  48.943  48.949  49.152  0.1072  3.2322  0.3388
  412SOL    HW2 1236  49.009  49.078  49.158  0.2015 -2.0965 -1.6767
  413SOL     OW 1237  50.172  48.787  51.295  0.1312  0.1686  0.2565
  413SOL    HW1 1238  50.123  48.826  51.222  0.6081 -0.5489 -0.0201
  413SOL    HW2 1239  50.113  48.724  51.336  1.4477  1.0936 -0.5177
  414SOL     OW 1240  49.538  51.341  49.945 -0.3414  0.4118  0.2706
  414SOL    HW1 1241  49.535  51.250  49.905 -0.1119  0.9956  0.2490
  414SOL    HW2 1242  49.628  51.334  49.983  0.4296  0.0001 -0.9098
  415SOL     OW 1243  51.582  49.705  49.472 -0.2648 -0.2524 -0.0048
  415SOL    HW1 1244  51.598  49.637  49.403  2.5406 -0.8914  0.6780
  415SOL    HW2 1245  51.662  49.694  49.528  0.8678  0.9450 -0.1146
  416SOL     OW 1246  51.437  49.525  50.234  0.1381  0.0501  0.0064
  416SOL    HW1 1247  51.417  49.559  50.148  1.8476 -0.3357  1.7271
  416SOL    HW2 1248  51.364  49.534  50.291  0.7670 -1.9947 -2.4071
  417SOL     OW 1249  50.330  50.185  50.216 -0.4227 -0.3842  0.6040
  417SOL    HW1 1250  50.332  50.163  50.124  1.6900 -1.3006  1.6913
  417SOL    HW2 1251  50.382  50.112  50.253 -0.0085  0.2349 -0.7802
  418SOL     OW 1252  51.059  48.809  50.833  0.0736 -0.1980 -0.2649
  418SOL    HW1 1253  50.970  48.848  50.817  1.0208  3.3726  4.0899
  418SOL    HW2 1254  51.039  48.716  50.856 -2.2738 -1.3849 -1.1091
  419SOL     OW 1255  50.236  50.372  51.194 -0.4124 -0.5328 -0.1366
  419SOL    HW1 1256  50.291  50.382  51.115 -1.1990 -0.5400  0.5447
  419SOL    HW2 1257  50.245  50.456  51.244 -0.3609 -1.6381 -0.3703
  420SOL     OW 1258  50.567  48.343  49.931 -0.3223  0.0665  0.0239
  420SOL    HW1 1259  50.636  48.285  49.965 -0.7619  0.9074 -2.2988
  420SOL    HW2 1260  50.598  48.389  49.853 -3.1277  0.7522 -1.2032
  421SOL     OW 1261  51.108  49.927  48.709 -0.5699  0.3359  0.2028
  421SOL    HW1 1262  51.011  49.945  48.722 -0.1055  1.0607  0.2253
  421SOL    HW2 1263  51.111  49.879  48.624 -0.1928  0.2044 -0.2243
  422SOL     OW 1264  51.335  49.308  50.780  0.3670  0.6124 -0.1748
  422SOL    HW1 1265  51.269  49.289  50.707  0.6928  0.9767  1.8008
  422SOL    HW2 1266  51.276  49.307  50.855 -1.5009  0.8642  0.0093
  423SOL     OW 1267  49.473  50.575  49.333 -0.6808  0.2564 -0.0990
  423SOL    HW1 1268  49.552  50.576  49.389 -0.5119 -0.3604  0.5346
  423SOL    HW2 1269  49.445  50.479  49.336  0.4309  3.8788  0.7265
  424SOL     OW 1270  51.317  49.921  49.287  0.1307  0.5032 -0.5964
  424SOL    HW1 1271  51.337  49.902  49.380  1.0767  0.1685 -0.8026
  424SOL    HW2 1272  51.228  49.883  49.274  0.7995  0.8971  1.3526
  425SOL     OW 1273  49.398  50.324  48.468 -0.4918  0.1951  0.2355
  425SOL    HW1 1274  49.317  50.349  48.518  0.0017  1.1485  0.0309
  425SOL    HW2 1275  49.434  50.411  48.439 -1.5341  0.1401 -1.1630
  426SOL     OW 1276  51.355  49.901  50.085  0.0548  0.0697 -0.0940
  426SOL    HW1 1277  51.400  49.873  50.166 -1.7504 -1.1222 -1.3928
  426SOL    HW2 1278  51.392  49.848  50.015 -2.6105 -0.5850 -1.2031
  427SOL     OW 1279  49.472  48.531  49.422  0.8365  0.8481 -0.3322
  427SOL    HW1 1280  49.380  48.531  49.383  1.3878 -1.0895 -0.1003
  427SOL    HW2 1281  49.482  48.612  49.478 -0.4363  0.3393 -1.1556
  428SOL     OW 1282  49.859  50.449  48.904  0.0660  0.0749 -0.0537
  428SOL    HW1 1283  49.777  50.403  48.880  1.6090 -0.5848  1.1928
  428SOL    HW2 1284  49.844  50.475  48.998 -0.8144  0.7887 -0.9674
  429SOL     OW 1285  49.119  50.308  48.915 -0.3102 -0.5813 -0.1243
  429SOL    HW1 1286  49.054  50.314  48.989  0.4015 -2.4525  0.9753
  429SOL    HW2 1287  49.168  50.225  48.930 -1.4330 -0.1196 -2.4387
  430SOL     OW 1288  50.307  49.125  50.230 -1.0050  0.1213  0.0985
  430SOL    HW1 1289  50.323  49.218  50.238 -2.2296  0.5697  0.1640
  430SOL    HW2 1290  50.239  49.110  50.300  1.0810  0.8176 -2.3262
  431SOL     OW 1291  49.793  50.148  49.117  0.8620 -0.3035 -0.3109
  431SOL    HW1 1292  49.788  50.102  49.030  1.6143  2.2239  0.9977
  431SOL    HW2 1293  49.882  50.183  49.109  0.9782 -0.9989 -1.2931
  432SOL     OW 1294  48.819  50.784  49.564  0.0235 -0.5766  0.4359
  432SOL    HW1 1295  48.787  50.692  49.557 -1.1032 -0.5926 -0.4471
  432SOL    HW2 1296  48.896  50.780  49.501  0.0106 -0.8751 -0.1623
  433SOL     OW 1297  50.447  50.795  49.720 -0.0159 -0.4692  0.3226
  433SOL    HW1 1298  50.360  50.767  49.755 -0.1642 -0.2547 -1.1109
  433SOL    HW2 1299  50.427  50.851  49.640 -0.5306 -1.1019 -0.2697
  434SOL     OW 1300  49.551  51.080  48.699  0.0578  0.4243 -0.1283
  434SOL    HW1 1301  49.583  51.081  48.608 -0.8156 -1.1899  0.0858
  434SOL    HW2 1302  49.581  50.992  48.733 -1.1108 -0.1630 -2.3630
  435SOL     OW 1303  48.877  49.679  49.991  0.0302  0.0337  0.1242
  435SOL    HW1 1304  48.919  49.734  50.060 -0.5217 -0.6427 -0.7020
  435SOL    HW2 1305  48.928  49.699  49.910 -1.4852  0.5068 -0.8828
  436SOL     OW 1306  50.362  48.752  50.613  0.3935  0.4488 -0.5480
  436SOL    HW1 1307  50.287  48.774  50.669  0.0206 -0.6408 -1.5505
  436SOL    HW2 1308  50.372  48.656  50.628 -0.6101  1.9764 -0.7253
  437SOL     OW 1309  51.069  49.432  50.423 -0.0143 -0.0799 -0.4529
  437SOL    HW1 1310  51.041  49.374  50.345 -1.5428  0.1279  0.4886
  437SOL    HW2 1311  50.981  49.453  50.465 -0.9244 -0.7220 -1.0915
  438SOL     OW 1312  48.839  49.201  50.410  0.5081  0.0566 -0.0310
  438SOL    HW1 1313  48.918  49.225  50.465 -0.6288  0.5558  1.0078
  438SOL    HW2 1314  48.842  49.101  50.399  1.3586  0.0397 -0.7699
  439SOL     OW 1315  49.892  50.961  50.274 -0.1629  0.1799  0.4400
  439SOL    HW1 1316  49.938  50.931  50.193 -0.0412  1.3844  1.8533
  439SOL    HW2 1317  49.800  50.960  50.243  0.7526 -0.5350  0.4595
  440SOL     OW 1318  50.766  51.186  50.670  0.1054 -0.2076  0.6632
  440SOL    HW1 1319  50.805  51.208  50.584 -2.2390 -0.7940  0.3949
  440SOL    HW2 1320  50.747  51.087  50.665  0.7852  0.9916 -0.7436
  441SOL     OW 1321  49.448  51.440  50.760 -0.1785 -0.3386  0.3802
  441SOL    HW1 1322  49.362  51.461  50.717  0.7313  0.8969 -1.0217
  441SOL    HW2 1323  49.503  51.497  50.702 -2.0131  1.5641 -1.3947
  442SOL     OW 1324  51.387  49.841  49.586  0.3167 -0.2806 -0.0389
  442SOL    HW1 1325  51.412  49.937  49.565  0.0314 -1.3446 -0.6888
  442SOL    HW2 1326  51.460  49.791  49.543  1.1069  0.9620  0.0008
  443SOL     OW 1327  51.177  49.892  49.004 -0.1156 -0.0379 -0.3734
  443SOL    HW1 1328  51.181  49.919  48.909  0.7825 -0.2079  0.0157
  443SOL    HW2 1329  51.267  49.850  49.007 -1.3712 -1.7685 -1.6994
  444SOL     OW 1330  50.142  48.765  49.162 -0.4309  0.1946 -0.1334
  444SOL    HW1 1331  50.189  48.676  49.167  0.3887  1.9003 -0.2800
  444SOL    HW2 1332  50.198  48.816  49.221 -0.7285  0.7253 -0.3095
  445SOL     OW 1333  49.536  48.826  49.946 -0.3995 -0.3869  0.0907
  445SOL    HW1 1334  49.525  48.895  50.017 -1.4144 -0.3819 -0.6742
  445SOL    HW2 1335  49.578  48.879  49.874  1.1679 -0.4701  0.6570
  446SOL     OW 1336  49.795  48.762  50.747  0.1999 -0.1433  0.1716
  446SOL    HW1 1337  49.830  48.695  50.809 -1.0849  0.6039  1.9918
  446SOL    HW2 1338  49.823  48.841  50.796  1.1465 -1.0531  0.9131
  447SOL     OW 1339  50.309  50.069  51.204 -0.1436 -0.1310 -0.2340
  447SOL    HW1 1340  50.379  50.114  51.254 -1.1569 -1.3334  0.2032
  447SOL    HW2 1341  50.359  50.008  51.150 -0.2972  3.1383  1.2201
  448SOL     OW 1342  50.049  48.522  50.488 -0.5301 -0.1148 -0.0063
  448SOL    HW1 1343  49.985  48.491  50.422  2.2161 -0.2092  0.1054
  448SOL    HW2 1344  50.083  48.604  50.447 -1.3267 -0.7740  0.5569
  449SOL     OW 1345  50.387  49.198  49.331  0.1804 -0.8051 -0.3922
  449SOL    HW1 1346  50.335  49.281  49.322 -0.8370  0.1931 -0.4414
  449SOL    HW2 1347  50.481  49.236  49.332  0.2188  1.0206 -0.0109
  450SOL     OW 1348  51.175  49.707  49.488  0.1550 -0.7896 -0.1696
  450SOL    HW1 1349  51.103  49.726  49.550  1.0831 -0.9514  1.4102
  450SOL    HW2 1350  51.252  49.746  49.539 -0.3694 -1.0061  0.6671
  451SOL     OW 1351  51.750  50.155  49.974  0.4434 -0.2287  0.2976
  451SOL    HW1 1352  51.665  50.205  49.983  0.7015  0.6032 -0.4009
  451SOL    HW2 1353  51.799  50.199  49.902  0.8891 -0.7005  1.3308
  452SOL     OW 1354  48.370  50.285  50.372  0.1452  0.3207 -0.6863
  452SOL    HW1 1355  48.464  50.257  50.360  0.2589  1.1938  0.5548
  452SOL    HW2 1356  48.315  50.202  50.361 -1.1795 -0.5979  0.2841
  453SOL     OW 1357  50.609  51.610  49.864 -0.0105 -0.0614 -0.0636
  453SOL    HW1 1358  50.569  51.660  49.790 -0.0471  0.6306  0.4367
  453SOL    HW2 1359  50.574  51.661  49.943  0.4554  0.4687 -0.2826
  454SOL     OW 1360  51.303  51.265  50.058  0.6827  0.0085  0.3375
  454SOL    HW1 1361  51.277  51.298  50.145 -0.1139 -0.9046 -1.9702
  454SOL    HW2 1362  51.216  51.257  50.010 -0.0273 -0.1177  0.2848
  455SOL     OW 1363  50.867  50.424  50.395 -0.0798 -0.1714  0.4196
  455SOL    HW1 1364  50.829  50.469  50.471  0.0584  0.4902 -1.5648
  455SOL    HW2 1365  50.961  50.461  50.404  0.7888  0.4567 -1.6769
  456SOL     OW 1366  50.287  49.342  49.574  0.4358  0.3771 -0.7370
  456SOL    HW1 1367  50.329  49.256  49.607  2.8773  0.8650  0.1044
  456SOL    HW2 1368  50.364  49.405  49.562  0.5830  0.3613  0.5162
  457SOL     OW 1369  49.313  49.731  51.407  0.2336 -0.1997 -0.4517
  457SOL    HW1 1370  49.393  49.768  51.366  0.8753  0.1853  2.2611
  457SOL    HW2 1371  49.345  49.662  51.466 -0.5212  2.2981 -0.5322
  458SOL     OW 1372  48.761  50.418  50.375 -0.4254  0.4214 -0.3586
  458SOL    HW1 1373  48.714  50.353  50.434  0.7725  1.7661 -0.0717
  458SOL    HW2 1374  48.698  50.486  50.356  0.7925 -0.4562 -0.5146
  459SOL     OW 1375  51.137  50.155  49.151  0.3158  0.3541  0.1756
  459SOL    HW1 1376  51.135  50.074  49.102  1.6390  2.0342  1.6584
  459SOL    HW2 1377  51.071  50.213  49.116  2.4140  0.2596  0.3844
  460SOL     OW 1378  50.458  49.808  49.378  0.2413 -0.0373  0.1309
  460SOL    HW1 1379  50.450  49.894  49.332  0.6393 -1.8266  0.1358
  460SOL    HW2 1380  50.383  49.804  49.440  0.8426  0.6091  1.5744
  461SOL     OW 1381  49.910  50.572  50.690 -0.0326 -0.0338  0.0551
  461SOL    HW1 1382  49.843  50.631  50.733  0.1850 -2.5065 -0.0318
  461SOL    HW2 1383  49.937  50.619  50.609 -0.1075 -0.3152 -2.6799
  462SOL     OW 1384  49.091  49.288  49.683 -0.1958 -0.3608 -0.0423
  462SOL    HW1 1385  49.043  49.347  49.744  0.0725 -2.3718  1.0380
  462SOL    HW2 1386  49.146  49.237  49.744 -0.1321  1.3548 -1.9967
  463SOL     OW 1387  50.647  50.335  48.628  0.7684 -0.7013  0.3760
  463SOL    HW1 1388  50.703  50.277  48.571  0.5677 -0.1771  1.8322
  463SOL    HW2 1389  50.677  50.425  48.602 -0.3428  0.4979 -0.9607
  464SOL     OW 1390  49.264  50.313  51.513  0.2498  1.0671  0.4062
  464SOL    HW1 1391  49.229  50.332  51.601  0.0665 -0.4024 -0.8218
  464SOL    HW2 1392  49.350  50.272  51.531  0.1763 -0.1103  1.7652
  465SOL     OW 1393  50.862  51.149  49.103 -0.7210  0.1038 -0.2630
  465SOL    HW1 1394  50.806  51.072  49.111  0.9198 -0.5278  0.1635
  465SOL    HW2 1395  50.944  51.103  49.074 -2.8799 -0.3428  0.3943
  466SOL     OW 1396  50.533  50.196  48.876  0.7117  0.1632  0.2629
  466SOL    HW1 1397  50.455  50.256  48.887  1.4062 -0.0405  1.5031
  466SOL    HW2 1398  50.578  50.221  48.790  1.4789 -0.6406 -0.3953
  467SOL     OW 1399  48.932  49.792  48.661  0.4682  0.0558 -0.6401
  467SOL    HW1 1400  48.844  49.767  48.708 -0.7340  0.7374  0.3969
  467SOL    HW2 1401  48.926  49.891  48.665 -1.4849  0.3982 -0.2277
  468SOL     OW 1402  49.797  51.335  50.044 -0.0492  0.4502  0.3364
  468SOL    HW1 1403  49.869  51.352  50.109  1.1329 -1.7798 -0.6655
  468SOL    HW2 1404  49.842  51.272  49.982  0.0864  0.9417  1.1040
  469SOL     OW 1405  51.189  48.839  50.423  0.4421  0.6290 -0.3595
  469SOL    HW1 1406  51.092  48.848  50.414 -0.2925 -0.2150 -0.0290
  469SOL    HW2 1407  51.213  48.882  50.509 -0.0133 -0.2874 -0.7359
  470SOL     OW 1408  50.196  50.213  49.424  0.2094  0.1682  0.1799
  470SOL    HW1 1409  50.284  50.166  49.434  0.7349 -0.2015 -0.3264
  470SOL    HW2 1410  50.131  50.139  49.436  1.4422 -1.5269 -0.4974
  471SOL     OW 1411  50.433  49.391  48.986 -0.5707 -0.1088 -0.2637
  471SOL    HW1 1412  50.529  49.362  48.987 -0.1692  1.2331 -0.9913
  471SOL    HW2 1413  50.433  49.450  49.063 -1.1655 -1.6161  1.0909
  472SOL     OW 1414  49.985  51.647  50.541 -0.0596 -0.0308  0.1614
  472SOL    HW1 1415  50.036  51.693  50.472  0.3517 -0.3631  1.5553
  472SOL    HW2 1416  50.036  51.660  50.625 -1.1673  1.8622 -0.4787
  473SOL     OW 1417  50.477  51.752  49.659 -0.3029  0.7526  0.1914
  473SOL    HW1 1418  50.473  51.789  49.569  0.0317 -0.9438  0.7509
  473SOL    HW2 1419  50.384  51.735  49.680 -0.5299 -0.0717 -0.3995
  474SOL     OW 1420  49.507  50.194  51.560  0.1696 -0.1190 -0.2054
  474SOL    HW1 1421  49.521  50.157  51.467  1.4982 -1.5684  0.7439
  474SOL    HW2 1422  49.542  50.124  51.622 -0.5293 -0.6209 -1.1010
  475SOL     OW 1423  50.175  48.584  50.080  0.2360 -0.0193 -0.7602
  475SOL    HW1 1424  50.169  48.629  50.169 -0.1906 -0.1791 -1.0326
  475SOL    HW2 1425  50.083  48.589  50.046 -0.4311 -1.2114  2.2890
  476SOL     OW 1426  49.088  48.810  49.794  0.0423  0.4444 -0.0526
  476SOL    HW1 1427  49.133  48.741  49.749  0.7801  1.8239 -1.5823
  476SOL    HW2 1428  49.006  48.811  49.739  2.2130 -1.1796  1.1320
  477SOL     OW 1429  50.777  50.905  50.645 -0.5200 -0.5866 -0.1296
  477SOL    HW1 1430  50.831  50.864  50.713 -0.3505  0.1736 -1.9620
  477SOL    HW2 1431  50.793  50.837  50.575 -0.5398 -0.5029  0.4503
  478SOL     OW 1432  49.609  48.824  51.205  0.3768  0.1692 -0.0887
  478SOL    HW1 1433  49.602  48.782  51.117 -0.4624  0.5896  1.2669
  478SOL    HW2 1434  49.697  48.791  51.235  0.3125 -0.8377 -1.7890
  479SOL     OW 1435  48.694  49.282  49.305 -0.0699  0.3729 -0.0232
  479SOL    HW1 1436  48.683  49.353  49.239  1.2337 -0.1666 -0.9322
  479SOL    HW2 1437  48.791  49.251  49.293 -0.5804 -0.1257  0.3939
  480SOL     OW 1438  50.016  51.230  50.220 -0.5927  0.0672  0.4197
  480SOL    HW1 1439  49.944  51.268  50.276 -1.5864 -2.1862 -1.9015
  480SOL    HW2 1440  50.017  51.135  50.244  2.2795 -0.2805  1.5333
  481SOL     OW 1441  48.855  51.022  50.957 -0.5507  0.1776  0.0256
  481SOL    HW1 1442  48.885  50.993  50.867  0.5932  1.1876 -0.4388
  481SOL    HW2 1443  48.804  51.102  50.939 -0.4775 -1.2280 -1.7702
  482SOL     OW 1444  48.537  50.288  50.097  0.2448  0.4029 -0.3536
  482SOL    HW1 1445  48.543  50.207  50.150  0.4127  0.0243 -0.3068
  482SOL    HW2 1446  48.601  50.273  50.026 -1.0955 -0.1624  2.3966
  483SOL     OW 1447  50.657  51.338  49.623 -0.1456 -0.2787  0.0693
  483SOL    HW1 1448  50.719  51.291  49.685  1.7791  2.9445 -0.0007
  483SOL    HW2 1449  50.686  51.429  49.633  0.1969 -0.5633  0.9283
  484SOL     OW 1450  49.770  49.453  50.607 -0.3162  0.2361 -0.1249
  484SOL    HW1 1451  49.688  49.407  50.639  2.1856  0.7288  0.0052
  484SOL    HW2 1452  49.741  49.545  50.593 -0.3440  0.7352  1.7020
  485SOL     OW 1453  50.963  51.372  50.231 -0.3201 -0.4243 -0.2201
  485SOL    HW1 1454  50.927  51.390  50.146  0.4466 -0.8593  0.9399
  485SOL    HW2 1455  50.896  51.410  50.289 -1.0394 -1.2416 -1.9278
  486SOL     OW 1456  48.542  50.324  50.738 -0.3613  0.3335 -0.4541
  486SOL    HW1 1457  48.500  50.381  50.666  0.6706  0.4751 -0.0013
  486SOL    HW2 1458  48.587  50.391  50.791 -0.7146  3.3540 -0.2422
  487SOL     OW 1459  49.102  50.344  50.778  0.7676  0.1009  0.1832
  487SOL    HW1 1460  49.151  50.427  50.764 -0.7672 -0.6593  1.5172
  487SOL    HW2 1461  49.168  50.272  50.773 -0.5919  0.5176 -0.9020
  488SOL     OW 1462  50.466  50.132  49.431 -0.1167 -0.5368 -0.1043
  488SOL    HW1 1463  50.496  50.156  49.520  0.4730 -0.4899 -2.3043
  488SOL    HW2 1464  50.553  50.149  49.385 -0.1448 -0.4128  2.2576
  489SOL     OW 1465  50.970  49.220  50.774  0.5358 -0.2758  0.5555
  489SOL    HW1 1466  51.036  49.205  50.706 -0.5689  0.7352  0.4840
  489SOL    HW2 1467  51.022  49.244  50.852  1.1101  0.2001 -0.3775
  490SOL     OW 1468  49.899  50.370  51.612  0.2994 -0.3500 -1.2484
  490SOL    HW1 1469  49.984  50.339  51.645  1.8079 -0.9099 -3.0790
  490SOL    HW2 1470  49.917  50.374  51.518  0.8248  0.8574 -0.8104
  491SOL     OW 1471  48.751  49.326  49.763  0.0893  0.3706  0.3756
  491SOL    HW1 1472  48.717  49.326  49.672  2.6583  1.9537  1.1757
  491SOL    HW2 1473  48.818  49.260  49.755 -1.1769  0.8557  0.1625
  492SOL     OW 1474  49.879  50.030  50.472  0.4374 -0.1043  0.4767
  492SOL    HW1 1475  49.893  50.038  50.375  1.1651  0.2007  1.8105
  492SOL    HW2 1476  49.917  50.112  50.505 -0.2573 -1.0604 -0.4904
  493SOL     OW 1477  49.087  50.057  51.299  0.0193  0.7466 -0.2980
  493SOL    HW1 1478  49.112  50.034  51.390 -1.5145 -0.3866  1.6065
  493SOL    HW2 1479  49.047  50.147  51.300  1.4415 -1.0189  0.6014
  494SOL     OW 1480  50.276  49.634  51.446 -0.3948 -0.1842  0.1775
  494SOL    HW1 1481  50.241  49.591  51.367  0.7750  0.6570  0.1560
  494SOL    HW2 1482  50.239  49.726  51.432 -0.2494 -1.5599 -1.3822
  495SOL     OW 1483  50.153  51.654  50.752 -0.0320  0.5131  0.2797
  495SOL    HW1 1484  50.236  51.601  50.731 -1.0234 -0.4222 -0.4276
  495SOL    HW2 1485  50.100  51.596  50.815  0.9769  0.5897 -0.0800
  496SOL     OW 1486  50.301  48.954  49.347  0.5414  0.1447 -0.0602
  496SOL    HW1 1487  50.378  48.907  49.382  0.9355  1.6382 -0.5405
  496SOL    HW2 1488  50.334  49.047  49.335 -0.4577 -1.1569  0.2923
  497SOL     OW 1489  49.520  48.764  50.540 -0.0521 -0.3265 -0.7379
  497SOL    HW1 1490  49.465  48.685  50.562 -2.0849 -0.2666  2.2635
  497SOL    HW2 1491  49.470  48.823  50.479  1.2761 -1.0220  2.4958
  498SOL     OW 1492  48.407  50.319  49.455  0.3832  0.2502  0.0635
  498SOL    HW1 1493  48.312  50.324  49.454 -0.4235  1.5854  0.1174
  498SOL    HW2 1494  48.428  50.365  49.536 -1.4536  0.4966 -2.9974
  499SOL     OW 1495  50.363  50.751  48.747 -0.2088 -0.0274 -0.1106
  499SOL    HW1 1496  50.345  50.653  48.744 -2.2155 -1.4149  0.2479
  499SOL    HW2 1497  50.279  50.779  48.791 -0.2932 -0.4837 -0.1862
  500SOL     OW 1498  50.552  49.032  51.265 -0.4295  0.0808  0.2239
  500SOL    HW1 1499  50.574  48.984  51.187 -2.0027  2.6338  1.1554
  500SOL    HW2 1500  50.512  48.965  51.321 -0.5665  1.5681 -2.6830
  501SOL     OW 1501  48.399  50.671  50.335 -0.0229 -0.0512 -0.0299
  501SOL    HW1 1502  48.398  50.598  50.267 -0.2379 -1.5699 -0.9098
  501SOL    HW2 1503  48.360  50.736  50.270 -1.1467 -0.6998 -1.1937
  502SOL     OW 1504  49.693  50.354  49.290  0.1696  0.3006 -0.4961
  502SOL    HW1 1505  49.721  50.264  49.274 -1.6129 -0.3367 -1.0807
  502SOL    HW2 1506  49.624  50.360  49.222  0.4123 -1.5638  1.0447
  503SOL     OW 1507  49.514  51.247  50.242  0.0219 -0.0601 -0.1382
  503SOL    HW1 1508  49.477  51.275  50.153  0.6423 -1.4547 -1.3701
  503SOL    HW2 1509  49.447  51.266  50.312 -2.0304 -1.0333  1.2322
  504SOL     OW 1510  50.566  50.780  50.931 -0.2457 -1.2150 -0.1455
  504SOL    HW1 1511  50.509  50.865  50.911 -0.4495  0.5099 -0.7851
  504SOL    HW2 1512  50.635  50.779  50.862  1.9747 -1.0119 -1.4261
  505SOL     OW 1513  50.177  50.847  50.890 -0.0969 -0.0346 -0.1912
  505SOL    HW1 1514  50.176  50.751  50.875 -0.3052 -1.2056 -0.5212
  505SOL    HW2 1515  50.098  50.861  50.943 -0.9059 -2.3286 -1.0534
  506SOL     OW 1516  48.920  49.459  49.343 -0.2233 -0.2619  0.1155
  506SOL    HW1 1517  48.883  49.539  49.383  1.8588 -0.3334 -2.9493
  506SOL    HW2 1518  48.937  49.488  49.251 -0.0303 -1.0810 -0.4626
  507SOL     OW 1519  49.273  50.853  50.751 -0.5495 -0.0108  0.0799
  507SOL    HW1 1520  49.257  50.947  50.753 -0.4083  0.0695 -0.7009
  507SOL    HW2 1521  49.190  50.819  50.710  2.0722  0.6368  0.1503
  508SOL     OW 1522  50.035  48.868  50.559  0.2717 -0.1874 -1.0796
  508SOL    HW1 1523  49.964  48.804  50.544  0.9033  1.1000  0.1489
  508SOL    HW2 1524  50.078  48.844  50.641 -0.6494  2.0976 -1.9048
  509SOL     OW 1525  49.726  50.526  51.317 -0.2090  0.0704 -0.0543
  509SOL    HW1 1526  49.668  50.451  51.293  0.3171  1.0926  0.8247
  509SOL    HW2 1527  49.715  50.532  51.417 -0.7197 -0.6134 -0.3214
  510SOL     OW 1528  48.924  50.300  49.128  0.2115 -0.0635  0.1678
  510SOL    HW1 1529  48.878  50.386  49.127 -0.4774 -1.5779  0.1224
  510SOL    HW2 1530  48.860  50.239  49.177 -0.2087 -0.7692 -0.0207
  511SOL     OW 1531  49.056  49.724  51.341  0.3480 -0.0491  0.0644
  511SOL    HW1 1532  48.995  49.757  51.409  1.0660  0.9469  1.3109
  511SOL    HW2 1533  49.142  49.753  51.383 -1.4737  0.6725 -0.6661
  512SOL     OW 1534  48.938  48.692  50.312  0.3487  0.3965 -0.4636
  512SOL    HW1 1535  48.970  48.636  50.235  1.1501 -0.8386  0.1885
  512SOL    HW2 1536  48.961  48.637  50.388 -1.4946  0.4890 -1.1280
  513SOL     OW 1537  50.181  49.465  50.754 -0.1942 -0.8095  0.6920
  513SOL    HW1 1538  50.147  49.485  50.666 -0.2547  1.2174  3.1099
  513SOL    HW2 1539  50.251  49.399  50.752  1.0727 -0.7261 -0.0384
  514SOL     OW 1540  49.104  50.848  49.937  0.6032 -0.0051  0.7370
  514SOL    HW1 1541  49.095  50.897  49.852  1.9858 -0.0595  1.5214
  514SOL    HW2 1542  49.015  50.814  49.948  2.0933 -0.5301 -2.4493
  515SOL     OW 1543  50.816  48.637  49.560  0.2425  0.5579 -0.0707
  515SOL    HW1 1544  50.911  48.615  49.576 -0.6202  0.4424 -0.0212
  515SOL    HW2 1545  50.774  48.552  49.589  0.5391 -1.0858  2.4353
  516SOL     OW 1546  50.450  51.227  48.772 -0.6036 -0.3827  0.0450
  516SOL    HW1 1547  50.444  51.237  48.869  0.2339 -0.6359  0.2716
  516SOL    HW2 1548  50.393  51.299  48.743  1.3723  0.7670  2.3735
  517SOL     OW 1549  49.658  51.085  49.921 -0.3141 -0.4831 -0.1758
  517SOL    HW1 1550  49.678  51.006  49.971  0.3714 -1.4747  1.8896
  517SOL    HW2 1551  49.746  51.113  49.884  0.1185 -2.0659  0.9513
  518SOL     OW 1552  50.800  49.707  50.126 -0.4644  0.2239 -0.4105
  518SOL    HW1 1553  50.755  49.762  50.057 -0.0717 -0.8303  2.0122
  518SOL    HW2 1554  50.778  49.618  50.095  0.7103  0.0008 -1.5119
  519SOL     OW 1555  48.453  49.615  49.639  0.1349 -0.2520 -0.0001
  519SOL    HW1 1556  48.536  49.638  49.684 -1.5084  0.2878  0.3485
  519SOL    HW2 1557  48.424  49.540  49.696  3.0073 -0.4475 -1.1771
  520SOL     OW 1558  48.813  49.874  50.335  0.0160  0.4806  0.3430
  520SOL    HW1 1559  48.794  49.815  50.409 -1.1488  0.6915 -1.1955
  520SOL    HW2 1560  48.762  49.832  50.264  0.9523  0.8531  0.1173
  521SOL     OW 1561  50.375  50.421  50.971  0.0867 -0.3115 -0.3782
  521SOL    HW1 1562  50.306  50.489  50.961  0.2323 -1.3246 -2.0143
  521SOL    HW2 1563  50.393  50.413  50.875 -0.7994  1.7552 -0.7844
  522SOL     OW 1564  48.953  50.551  48.620 -0.0281 -0.3605 -0.0631
  522SOL    HW1 1565  49.016  50.477  48.617 -0.1521  1.2779  0.7173
  522SOL    HW2 1566  48.998  50.623  48.573 -0.3001 -1.0426  0.1118
  523SOL     OW 1567  50.405  51.005  50.880  0.1635  0.1868 -0.2103
  523SOL    HW1 1568  50.370  51.080  50.822 -1.5366  1.0202  0.3287
  523SOL    HW2 1569  50.321  50.949  50.876  0.4038 -0.5599 -2.0298
  524SOL     OW 1570  49.148  51.500  49.901 -0.2599 -0.2390 -0.4049
  524SOL    HW1 1571  49.235  51.464  49.890  0.5239  1.5200  0.7740
  524SOL    HW2 1572  49.172  51.582  49.947  1.3395 -1.0019  0.1053
  525SOL     OW 1573  49.853  50.582  50.295 -0.0397  0.2684  0.1175
  525SOL    HW1 1574  49.784  50.616  50.354 -1.3633 -0.2291  0.5927
  525SOL    HW2 1575  49.845  50.484  50.314 -2.5971  2.4314 -0.4056
  526SOL     OW 1576  49.541  49.226  49.117 -0.2165  0.1917  0.3087
  526SOL    HW1 1577  49.554  49.324  49.105 -1.3508  1.2837  1.3788
  526SOL    HW2 1578  49.613  49.209  49.181  0.2379  0.3154 -0.6642
  527SOL     OW 1579  49.514  49.777  50.705  0.7969  0.7570  0.5227
  527SOL    HW1 1580  49.544  49.831  50.631 -0.8530 -0.9948  2.6327
  527SOL    HW2 1581  49.548  49.832  50.779 -0.3076 -1.1535 -1.4378
  528SOL     OW 1582  48.501  50.081  50.854 -0.3041 -0.4667  0.0162
  528SOL    HW1 1583  48.484  50.046  50.767 -0.2200 -0.1836 -0.5453
  528SOL    HW2 1584  48.501  50.176  50.841  1.3197 -2.3043 -0.3756
  529SOL     OW 1585  50.883  51.317  49.799 -0.1375 -0.6275  0.0337
  529SOL    HW1 1586  50.919  51.266  49.873  0.3043  0.1397  0.2509
  529SOL    HW2 1587  50.958  51.364  49.761 -1.3244 -0.9850 -0.5739
  530SOL     OW 1588  51.044  50.710  48.920 -0.3196 -0.8647  0.1648
  530SOL    HW1 1589  51.129  50.666  48.941 -0.6862 -1.1609 -1.8382
  530SOL    HW2 1590  51.007  50.642  48.861  0.6638 -2.9152 -0.2533
  531SOL     OW 1591  49.961  49.368  48.436  0.1678  0.1210  0.1110
  531SOL    HW1 1592  49.969  49.276  48.407 -0.0713  0.1399 -2.3247
  531SOL    HW2 1593  50.002  49.370  48.525  0.0776 -1.2226 -2.7188
  532SOL     OW 1594  51.520  50.630  50.318  0.3280 -0.1553 -0.3143
  532SOL    HW1 1595  51.503  50.607  50.410  0.2124 -0.4847  0.2807
  532SOL    HW2 1596  51.595  50.572  50.290 -0.6885  2.1118  2.0492
  533SOL     OW 1597  49.219  49.525  50.782 -0.0877 -0.2311  0.3957
  533SOL    HW1 1598  49.208  49.619  50.758  2.1526 -0.9531  0.2392
  533SOL    HW2 1599  49.316  49.524  50.798 -1.8739 -0.1490 -0.1025
  534SOL     OW 1600  49.507  49.544  49.524 -0.3436 -0.4683 -0.0461
  534SOL    HW1 1601  49.554  49.472  49.484 -0.9900  1.2020 -1.0606
  534SOL    HW2 1602  49.418  49.529  49.494  1.0261 -1.3219 -0.1027
  535SOL     OW 1603  51.033  51.190  50.008 -0.0778 -0.1788 -0.0732
  535SOL    HW1 1604  51.073  51.100  49.994 -0.4021 -0.1396  1.0390
  535SOL    HW2 1605  51.028  51.205  50.104  0.2475  0.1446  0.3758
  536SOL     OW 1606  49.610  49.349  50.100 -0.0071  0.0739 -0.4122
  536SOL    HW1 1607  49.615  49.401  50.019 -0.0580 -0.0805 -2.4756
  536SOL    HW2 1608  49.650  49.402  50.172  0.4733 -0.3460 -3.4123
  537SOL     OW 1609  49.363  51.091  48.898 -0.0526  0.2589  0.4833
  537SOL    HW1 1610  49.286  51.073  48.837  0.0504  0.5696  0.9007
  537SOL    HW2 1611  49.438  51.103  48.833 -0.2220 -0.4343 -0.9560
  538SOL     OW 1612  51.169  51.109  50.332 -0.0447  0.2798  0.4819
  538SOL    HW1 1613  51.181  51.022  50.291  0.1168  1.0189 -0.4983
  538SOL    HW2 1614  51.075  51.120  50.362  1.0970 -0.1549  1.1518
  539SOL     OW 1615  50.196  50.690  51.141  0.9436 -0.2501  0.2101
  539SOL    HW1 1616  50.194  50.737  51.055  0.7105 -3.9105  1.0532
  539SOL    HW2 1617  50.125  50.625  51.133 -0.5056 -0.6246  0.9997
  540SOL     OW 1618  49.959  50.344  51.318 -0.4922  0.3170  0.4957
  540SOL    HW1 1619  50.033  50.407  51.305 -1.5910  1.0985 -2.5133
  540SOL    HW2 1620  49.879  50.400  51.293  0.0757 -0.8264  2.8958
  541SOL     OW 1621  49.880  48.947  51.014  0.2813  0.1919 -0.0882
  541SOL    HW1 1622  49.816  49.016  50.988  2.1504 -1.6323 -0.6001
  541SOL    HW2 1623  49.965  48.993  51.030 -0.8328  0.0759  0.5733
  542SOL     OW 1624  48.522  50.889  50.090  0.2837  0.0443 -0.2419
  542SOL    HW1 1625  48.507  50.978  50.054  0.8357  0.5570 -0.3882
  542SOL    HW2 1626  48.614  50.885  50.124 -0.1625  0.4554  0.0721
  543SOL     OW 1627  50.826  50.460  49.853  0.0460  0.2108  0.2929
  543SOL    HW1 1628  50.769  50.388  49.887 -0.5244 -0.5671  0.9052
  543SOL    HW2 1629  50.758  50.529  49.836 -0.5119 -1.9123  1.4409
  544SOL     OW 1630  48.321  49.269  50.249 -0.0596  0.1770  0.2261
  544SOL    HW1 1631  48.233  49.241  50.273 -0.7275  1.9100  1.8151
  544SOL    HW2 1632  48.380  49.193  50.264 -1.6789 -0.6427  0.7294
  545SOL     OW 1633  51.113  50.506  50.430 -0.2515  0.0750  0.3847
  545SOL    HW1 1634  51.193  50.456  50.466 -1.5033  0.4371  1.0460
  545SOL    HW2 1635  51.139  50.554  50.346  1.7272  1.0759 -1.9942
  546SOL     OW 1636  48.774  50.071  49.996 -0.0154 -0.1366 -0.2679
  546SOL    HW1 1637  48.863  50.102  50.002 -2.8524  0.3333  0.0063
  546SOL    HW2 1638  48.758  50.062  50.090  2.8982 -0.0323  0.2903
  547SOL     OW 1639  50.866  48.621  49.875 -0.1319  0.2971  0.1431
  547SOL    HW1 1640  50.807  48.544  49.872  0.2089  2.0684 -0.0462
  547SOL    HW2 1641  50.812  48.691  49.915 -0.7078 -1.6229 -0.6271
  548SOL     OW 1642  51.280  50.244  48.854 -0.1524  0.1984  0.3335
  548SOL    HW1 1643  51.344  50.317  48.880  0.1987 -1.2462 -1.0597
  548SOL    HW2 1644  51.336  50.168  48.868  0.9924  0.8204 -0.4573
  549SOL     OW 1645  48.412  49.903  49.616  0.5811 -0.2996 -0.4851
  549SOL    HW1 1646  48.475  49.932  49.684 -2.4827 -1.7654 -2.1229
  549SOL    HW2 1647  48.407  49.811  49.633 -0.7322  0.8637  0.0667
  550SOL     OW 1648  49.036  50.983  49.707  0.2740 -0.0367  0.0449
  550SOL    HW1 1649  49.054  50.943  49.621  2.2512  0.4402 -0.5778
  550SOL    HW2 1650  48.944  51.021  49.702  1.8009 -1.9236  0.3156
  551SOL     OW 1651  49.534  48.996  50.334  0.2287  0.1669  0.0768
  551SOL    HW1 1652  49.454  48.987  50.385  0.1220 -0.7007 -0.3984
  551SOL    HW2 1653  49.499  49.040  50.251 -1.6105  1.5663  0.1438
  552SOL     OW 1654  51.417  50.186  50.262  0.3807  0.2164  0.0279
  552SOL    HW1 1655  51.426  50.090  50.257 -0.1261 -0.3218  0.3603
  552SOL    HW2 1656  51.318  50.203  50.279  2.0644  0.8936 -0.0509
  553SOL     OW 1657  51.104  49.318  51.003  0.1459  0.0157  0.7432
  553SOL    HW1 1658  51.189  49.326  51.053 -1.5356 -1.2377  0.1477
  553SOL    HW2 1659  51.043  49.379  51.049  0.4336  1.5424 -1.5728
  554SOL     OW 1660  51.634  49.900  50.534 -0.0622  0.0544  0.6467
  554SOL    HW1 1661  51.698  49.839  50.579 -1.0909 -0.8139 -0.3107
  554SOL    HW2 1662  51.605  49.967  50.602 -0.3994 -1.1855  0.0688
  555SOL     OW 1663  49.633  51.249  49.124  0.1510  0.9553  0.5129
  555SOL    HW1 1664  49.683  51.211  49.048 -2.5114 -0.1171  1.8413
  555SOL    HW2 1665  49.551  51.278  49.087  0.3095 -0.0139  1.7012
  556SOL     OW 1666  49.390  49.204  51.246 -0.1964  0.0322 -0.1870
  556SOL    HW1 1667  49.303  49.211  51.289  0.2920  2.1656 -0.1169
  556SOL    HW2 1668  49.400  49.286  51.193 -0.5675 -0.6063  0.8108
  557SOL     OW 1669  51.317  50.378  50.575  0.4929 -0.3356  0.2710
  557SOL    HW1 1670  51.243  50.355  50.634  0.9536 -0.1053 -0.3274
  557SOL    HW2 1671  51.353  50.291  50.558  0.2169 -0.6980  0.6160
  558SOL     OW 1672  49.381  49.106  48.767  0.4670 -0.3989  0.2386
  558SOL    HW1 1673  49.456  49.088  48.826 -1.2795  0.3415 -1.7958
  558SOL    HW2 1674  49.396  49.055  48.689  1.4680  0.8425 -0.8810
  559SOL     OW 1675  51.693  50.425  50.267 -0.3478  0.4561  0.1868
  559SOL    HW1 1676  51.766  50.395  50.212  0.4806  0.0168  1.3545
  559SOL    HW2 1677  51.662  50.338  50.293  0.0176 -1.7103 -0.9622
  560SOL     OW 1678  49.477  50.467  50.022 -0.2042  0.1196 -0.0978
  560SOL    HW1 1679  49.467  50.547  49.964  1.1564 -0.3141 -0.5276
  560SOL    HW2 1680  49.522  50.400  49.964 -0.7374  0.1622 -0.2317
  561SOL     OW 1681  50.014  49.605  51.242  0.2384 -0.0868  0.3757
  561SOL    HW1 1682  49.992  49.549  51.160  0.4131  2.0634 -0.7090
  561SOL    HW2 1683  49.984  49.692  51.212 -1.4310 -0.1774 -1.3186
  562SOL     OW 1684  49.973  49.873  49.123 -0.3709  0.3318  0.0812
  562SOL    HW1 1685  49.945  49.967  49.125 -0.8224 -1.4908  1.8507
  562SOL    HW2 1686  50.016  49.860  49.038 -2.2157  1.4686  0.6976
  563SOL     OW 1687  48.955  49.209  49.298 -0.0524 -0.0788  0.0679
  563SOL    HW1 1688  48.970  49.165  49.384  0.1401  1.0107 -0.5028
  563SOL    HW2 1689  48.951  49.307  49.320  0.5123 -1.5568  0.4982
  564SOL     OW 1690  51.298  49.861  50.598  0.3479 -0.5623 -0.0584
  564SOL    HW1 1691  51.362  49.852  50.673 -2.4025 -0.5197  0.9676
  564SOL    HW2 1692  51.343  49.838  50.516  1.1237 -1.2074 -1.0568
  565SOL     OW 1693  49.387  50.912  50.428  0.1186 -0.2970 -0.0992
  565SOL    HW1 1694  49.316  50.971  50.400  2.5606  0.6490  1.0746
  565SOL    HW2 1695  49.368  50.828  50.384 -0.7819  0.6264 -0.1336
  566SOL     OW 1696  51.028  49.690  50.941 -0.3762  0.0195 -0.1005
  566SOL    HW1 1697  51.100  49.675  50.876 -0.3771 -0.2482  1.2414
  566SOL    HW2 1698  50.951  49.726  50.892  2.5714  1.2591  1.7289
  567SOL     OW 1699  49.457  51.667  50.409 -0.2883 -0.0827 -0.3110
  567SOL    HW1 1700  49.469  51.742  50.350  1.3759  1.2932  0.8970
  567SOL    HW2 1701  49.553  51.645  50.424 -1.0224  1.2236  0.3079
  568SOL     OW 1702  50.690  49.319  48.720  0.2172 -0.2131 -0.0847
  568SOL    HW1 1703  50.659  49.307  48.808  0.8785 -1.3821 -0.8570
  568SOL    HW2 1704  50.787  49.298  48.728 -2.0945  1.3751 -0.3907
  569SOL     OW 1705  49.227  48.599  49.368 -0.8650  0.6011 -0.1230
  569SOL    HW1 1706  49.144  48.556  49.340 -1.8662  0.5130  0.6234
  569SOL    HW2 1707  49.216  48.700  49.354 -0.6449  0.3204  0.7897
  570SOL     OW 1708  51.501  50.256  49.999  0.5173 -0.0481  0.1728
  570SOL    HW1 1709  51.476  50.232  50.093  0.1956 -1.0496 -0.0347
  570SOL    HW2 1710  51.438  50.212  49.938  0.9685  0.6236 -1.3438
  571SOL     OW 1711  49.468  48.801  49.598  0.7905  0.2704 -0.1013
  571SOL    HW1 1712  49.510  48.848  49.669  2.6233 -0.5816  0.0266
  571SOL    HW2 1713  49.499  48.844  49.519 -0.7664 -0.6171  1.1495
  572SOL     OW 1714  51.165  48.718  50.078  0.3766  0.7221  0.2423
  572SOL    HW1 1715  51.118  48.641  50.046  0.0042 -0.3183 -2.6370
  572SOL    HW2 1716  51.213  48.695  50.160  1.5118  1.4578 -2.1212
  573SOL     OW 1717  49.941  48.432  49.995  0.0250  0.1356 -0.0121
  573SOL    HW1 1718  50.011  48.369  49.960 -2.0563  0.8583  0.8525
  573SOL    HW2 1719  49.871  48.429  49.927  0.3682 -0.5720 -0.8455
  574SOL     OW 1720  50.574  49.591  48.693  0.1626  0.2735 -0.4702
  574SOL    HW1 1721  50.615  49.508  48.724  0.1285 -0.3371 -1.3291
  574SOL    HW2 1722  50.586  49.580  48.594 -0.8153 -0.4381  0.8204
  575SOL     OW 1723  50.920  49.793  48.459  0.2355  0.6360  0.4407
  575SOL    HW1 1724  50.915  49.751  48.375  1.2211  0.3032 -0.1634
  575SOL    HW2 1725  50.841  49.763  48.507  1.5551 -0.9533 -1.2122
  576SOL     OW 1726  49.631  49.063  48.896  0.5800  0.3533 -0.2507
  576SOL    HW1 1727  49.618  49.140  48.954  0.3699  0.9442 -0.1816
  576SOL    HW2 1728  49.614  48.983  48.959  0.2082  2.1565  0.9047
  577SOL     OW 1729  49.877  48.973  49.650 -0.2664 -0.2037  0.3754
  577SOL    HW1 1730  49.932  49.043  49.699  1.1640  0.0045  0.3033
  577SOL    HW2 1731  49.936  48.951  49.575 -0.0703  1.2262 -0.4936
  578SOL     OW 1732  49.821  49.616  49.467 -0.0128 -0.2633  0.2915
  578SOL    HW1 1733  49.743  49.653  49.507  0.0280  0.8450 -1.5707
  578SOL    HW2 1734  49.796  49.525  49.448 -0.4874  0.9366  3.0805
  579SOL     OW 1735  49.138  49.485  51.033  0.0392 -0.8094  0.1515
  579SOL    HW1 1736  49.166  49.494  50.936 -0.0307 -1.9209 -3.2826
  579SOL    HW2 1737  49.122  49.385  51.035  0.2991 -0.6912 -2.0140
  580SOL     OW 1738  49.226  49.754  50.040 -0.5372  0.2442 -0.2705
  580SOL    HW1 1739  49.217  49.814  50.120  0.2812 -0.6630 -1.6995
  580SOL    HW2 1740  49.312  49.708  50.051 -2.1606 -2.8420 -0.1649
  581SOL     OW 1741  49.912  48.745  50.064 -0.2112 -0.4376  0.3212
  581SOL    HW1 1742  49.823  48.781  50.063 -1.1392 -0.6122 -0.4081
  581SOL    HW2 1743  49.933  48.763  49.970 -1.3733  2.3600  1.1426
  582SOL     OW 1744  50.883  51.124  49.387  0.1624 -0.0945  0.3897
  582SOL    HW1 1745  50.884  51.207  49.440 -0.0605 -0.2461  0.2460
  582SOL    HW2 1746  50.895  51.154  49.293 -0.7558  0.1420  0.3237
  583SOL     OW 1747  49.734  48.382  49.836 -0.1746 -0.1849 -0.1814
  583SOL    HW1 1748  49.699  48.406  49.746 -1.0818 -0.6634 -0.2631
  583SOL    HW2 1749  49.664  48.423  49.891  0.4837 -0.6204 -1.3208
  584SOL     OW 1750  49.097  51.109  50.757  0.1360 -0.7612  0.5922
  584SOL    HW1 1751  49.018  51.069  50.714  0.1614  0.9809  1.0903
  584SOL    HW2 1752  49.110  51.194  50.716  0.2333 -0.2335  0.9477
  585SOL     OW 1753  51.076  49.310  50.034 -0.2200 -0.2214 -0.1712
  585SOL    HW1 1754  51.049  49.403  50.025  1.4620  3.3675 -0.1778
  585SOL    HW2 1755  51.168  49.316  49.989 -0.6084  0.2754 -1.2018
  586SOL     OW 1756  50.731  49.437  49.997  0.4391 -0.3253  0.2799
  586SOL    HW1 1757  50.726  49.409  49.903  2.0132  0.6141  1.2718
  586SOL    HW2 1758  50.714  49.355  50.049 -0.7496  0.2534 -0.4502
  587SOL     OW 1759  50.490  50.180  51.402 -0.2223 -0.0237 -0.3586
  587SOL    HW1 1760  50.582  50.193  51.368 -2.1964 -0.1787  1.6257
  587SOL    HW2 1761  50.454  50.268  51.411  0.5876 -0.5671 -0.0567
  588SOL     OW 1762  49.197  50.570  48.904 -0.2465 -0.0620 -0.2773
  588SOL    HW1 1763  49.189  50.474  48.894 -0.1567  1.9271 -0.2830
  588SOL    HW2 1764  49.131  50.584  48.972 -0.2468 -1.6298 -0.0097
  589SOL     OW 1765  48.875  49.193  50.117 -0.0378  0.0479 -0.2854
  589SOL    HW1 1766  48.865  49.238  50.202  0.2812  1.6485 -1.1086
  589SOL    HW2 1767  48.951  49.136  50.142 -0.5970 -0.5995  2.8165
  590SOL     OW 1768  50.400  50.518  51.561  0.2453  0.1678 -0.2112
  590SOL    HW1 1769  50.441  50.477  51.639  0.3469  1.1852  0.8307
  590SOL    HW2 1770  50.474  50.562  51.513 -1.2653 -0.9221 -0.7780
  591SOL     OW 1771  49.708  49.454  48.334  0.2165  0.4710  0.0238
  591SOL    HW1 1772  49.694  49.368  48.290  0.4902  1.4220  0.7093
  591SOL    HW2 1773  49.798  49.438  48.370 -0.9189 -1.5874 -0.7596
  592SOL     OW 1774  50.011  50.422  48.359 -0.1309  0.2781  0.0376
  592SOL    HW1 1775  49.927  50.469  48.371  0.5426 -0.1525  0.6426
  592SOL    HW2 1776  50.069  50.484  48.311 -2.5917 -3.1158  0.2079
  593SOL     OW 1777  49.850  51.550  49.752  0.4339  0.1534  0.0981
  593SOL    HW1 1778  49.842  51.463  49.705  0.5181  1.9896 -1.5782
  593SOL    HW2 1779  49.801  51.613  49.694  1.3671 -0.1032 -0.1251
  594SOL     OW 1780  48.765  50.056  50.945 -0.2850 -0.0316  0.5343
  594SOL    HW1 1781  48.801  50.148  50.938 -0.4057 -0.5467  1.2846
  594SOL    HW2 1782  48.669  50.075  50.918  1.1131  0.4330  0.7007
  595SOL     OW 1783  49.427  49.046  49.314 -0.1177 -0.5303  0.3397
  595SOL    HW1 1784  49.449  49.099  49.396  1.0565 -0.5982  0.8088
  595SOL    HW2 1785  49.426  49.118  49.245 -1.4897  0.7446 -0.0509
  596SOL     OW 1786  50.724  49.235  50.215  0.1736  0.1031 -0.2856
  596SOL    HW1 1787  50.743  49.315  50.269  1.4017 -1.6012 -0.5847
  596SOL    HW2 1788  50.810  49.192  50.224  1.1940  1.3176  0.4516
  597SOL     OW 1789  49.761  48.638  49.726  0.4868  0.4389  0.8686
  597SOL    HW1 1790  49.780  48.679  49.636 -0.1530 -0.9951 -0.3464
  597SOL    HW2 1791  49.666  48.649  49.739 -2.0976  0.9027  1.0601
  598SOL     OW 1792  51.430  50.441  48.971  0.4745  0.0649  0.1539
  598SOL    HW1 1793  51.351  50.464  49.028  0.3301 -0.0926  0.3150
  598SOL    HW2 1794  51.500  50.506  48.997  0.8888  0.3059  0.5146
  599SOL     OW 1795  49.804  50.130  51.494 -0.7564  0.4956  0.3324
  599SOL    HW1 1796  49.780  50.219  51.534 -0.0685 -0.3553  1.6661
  599SOL    HW2 1797  49.725  50.096  51.443 -1.1327 -1.0022 -1.2087
  600SOL     OW 1798  51.065  50.544  49.747 -0.4710 -0.1919 -0.1799
  600SOL    HW1 1799  51.077  50.471  49.685  0.8310 -2.6261  1.7526
  600SOL    HW2 1800  50.981  50.513  49.791 -0.7955  0.3342 -2.9227
  601SOL     OW 1801  49.424  50.236  50.713 -0.1826 -0.2118 -0.2915
  601SOL    HW1 1802  49.415  50.304  50.646 -0.2426 -0.3511  1.4500
  601SOL    HW2 1803  49.418  50.154  50.661 -1.4065  3.4819 -0.1231
  602SOL     OW 1804  51.134  50.899  49.285 -0.1635 -0.2428 -0.0675
  602SOL    HW1 1805  51.227  50.898  49.325 -1.1550 -0.1945 -0.5674
  602SOL    HW2 1806  51.068  50.927  49.352  0.7274 -1.3562 -0.6760
  603SOL     OW 1807  49.026  49.496  50.579  0.0979 -0.7884  0.2972
  603SOL    HW1 1808  49.091  49.494  50.650 -1.0514 -0.2726 -0.0614
  603SOL    HW2 1809  48.945  49.521  50.631  1.4604  0.5332  0.3123
  604SOL     OW 1810  51.220  49.611  50.764 -0.0573 -0.0406 -0.3515
  604SOL    HW1 1811  51.303  49.564  50.762 -0.9792  1.1910 -1.3485
  604SOL    HW2 1812  51.236  49.675  50.695  0.8870 -2.1430  1.1773
  605SOL     OW 1813  48.756  49.270  50.783 -0.1797  0.3131 -0.5142
  605SOL    HW1 1814  48.678  49.256  50.729  0.3345  1.5482 -0.3976
  605SOL    HW2 1815  48.775  49.362  50.776 -0.4955 -1.3653 -0.3438
  606SOL     OW 1816  50.382  51.526  50.733 -0.5166  0.2615 -0.3128
  606SOL    HW1 1817  50.468  51.493  50.693 -1.9076 -0.7933 -0.7059
  606SOL    HW2 1818  50.377  51.479  50.820  1.1049  0.9918  0.3476
  607SOL     OW 1819  50.240  48.353  50.195  0.0050 -0.1449  0.0962
  607SOL    HW1 1820  50.247  48.445  50.164 -0.5793 -1.8363 -0.0776
  607SOL    HW2 1821  50.203  48.304  50.122 -0.0931  0.8250  1.2340
  608SOL     OW 1822  49.497  49.090  50.067 -0.4048  0.3378 -0.2918
  608SOL    HW1 1823  49.448  49.101  49.979 -0.9117  0.0388 -1.4835
  608SOL    HW2 1824  49.552  49.174  50.077 -0.2588  0.7788  0.1309
  609SOL     OW 1825  50.477  50.465  50.046  0.2467 -0.3569  0.2271
  609SOL    HW1 1826  50.405  50.479  50.106  1.6673 -1.0873 -0.0326
  609SOL    HW2 1827  50.554  50.470  50.105 -0.5812  0.5025  0.0268
  610SOL     OW 1828  49.607  50.324  51.209  0.1224 -0.4955  0.0023
  610SOL    HW1 1829  49.614  50.300  51.117  0.5834 -1.4687  2.7278
  610SOL    HW2 1830  49.551  50.252  51.239  0.0717  0.1478 -0.6997
  611SOL     OW 1831  50.416  50.666  48.393  0.3042 -0.6372 -0.1538
  611SOL    HW1 1832  50.333  50.666  48.446  1.2686 -0.8143 -1.2681
  611SOL    HW2 1833  50.387  50.720  48.317 -1.1610  0.8302  0.2799
  612SOL     OW 1834  50.174  50.561  51.407 -0.0747  0.3900  0.2101
  612SOL    HW1 1835  50.233  50.544  51.485 -1.3753  1.8006 -0.6647
  612SOL    HW2 1836  50.108  50.619  51.443  2.0333 -0.5804  0.4580
  613SOL     OW 1837  50.213  49.223  48.973 -0.0392  0.4363  0.1791
  613SOL    HW1 1838  50.277  49.287  49.005  0.8594  0.2637 -1.0468
  613SOL    HW2 1839  50.269  49.153  48.931 -0.6440  1.4546 -1.0638
  614SOL     OW 1840  50.545  49.720  51.285 -0.6495  0.5925 -0.6834
  614SOL    HW1 1841  50.534  49.627  51.264 -0.7956  1.2228  0.2138
  614SOL    HW2 1842  50.497  49.720  51.369 -0.4929 -1.5941 -3.1558
  615SOL     OW 1843  50.234  49.043  51.366 -0.6101 -0.2390 -0.5717
  615SOL    HW1 1844  50.223  48.945  51.364 -1.0574  1.0780  0.0689
  615SOL    HW2 1845  50.141  49.077  51.372 -1.1413 -1.2400 -0.4417
  616SOL     OW 1846  50.723  48.739  49.186 -0.6745  0.4471 -0.0297
  616SOL    HW1 1847  50.810  48.742  49.232 -1.3321  0.7625 -0.0278
  616SOL    HW2 1848  50.669  48.674  49.234 -0.8847  2.2132  1.5246
  617SOL     OW 1849  50.389  51.589  49.242 -0.0480  0.0043  0.1459
  617SOL    HW1 1850  50.294  51.616  49.253 -0.6752 -1.3979  0.5186
  617SOL    HW2 1851  50.405  51.518  49.311  1.2619  0.7059  0.0634
  618SOL     OW 1852  49.093  50.339  49.722  0.0791 -0.2052  0.5759
  618SOL    HW1 1853  49.060  50.401  49.656  1.9782 -1.0859  1.4856
  618SOL    HW2 1854  49.177  50.382  49.740 -1.3348  0.1373 -1.9239
  619SOL     OW 1855  49.383  50.139  50.971 -0.0685  0.2211 -0.1132
  619SOL    HW1 1856  49.413  50.166  50.883 -0.5598  0.5555  2.3699
  619SOL    HW2 1857  49.446  50.071  51.001 -0.8270 -0.0529 -0.3674
  620SOL     OW 1858  50.690  51.014  49.750  0.3557 -0.1433  0.8413
  620SOL    HW1 1859  50.783  50.983  49.765 -0.4617 -2.0262 -0.9623
  620SOL    HW2 1860  50.664  50.968  49.668 -1.4072  0.5250  1.3388
  621SOL     OW 1861  48.661  48.992  49.511  0.1625 -0.0631 -0.4762
  621SOL    HW1 1862  48.578  48.997  49.465  0.0016 -2.3929 -1.8482
  621SOL    HW2 1863  48.674  49.078  49.552  0.2997 -1.0045 -1.8765
  622SOL     OW 1864  49.527  49.548  50.556 -0.1513 -0.1189 -0.5833
  622SOL    HW1 1865  49.529  49.627  50.613  1.9934  1.4671 -0.2581
  622SOL    HW2 1866  49.509  49.586  50.465 -1.6349 -0.1883  1.3358
  623SOL     OW 1867  49.748  51.006  51.476  0.7921  0.3401  0.0983
  623SOL    HW1 1868  49.686  51.068  51.514  0.8262 -1.6319  0.8794
  623SOL    HW2 1869  49.695  50.924  51.470  1.9399  2.4587 -0.0393
  624SOL     OW 1870  48.587  50.482  49.346  0.2745 -0.0939  0.6875
  624SOL    HW1 1871  48.516  50.418  49.360 -0.3438  2.3194  0.8112
  624SOL    HW2 1872  48.546  50.560  49.395 -0.2521 -0.1570 -0.6253
  625SOL     OW 1873  49.216  49.935  48.774  0.2246 -0.4736  0.0037
  625SOL    HW1 1874  49.164  49.862  48.748 -0.4902  1.0876  0.3629
  625SOL    HW2 1875  49.272  49.905  48.842 -2.2180  0.2524 -0.7553
  626SOL     OW 1876  50.934  49.585  48.742 -0.2005 -0.1074  0.3504
  626SOL    HW1 1877  51.025  49.578  48.704 -1.8766  1.1130  1.3701
  626SOL    HW2 1878  50.906  49.495  48.765 -2.4423 -2.0732 -0.6132
  627SOL     OW 1879  49.195  50.762  51.002  0.1751 -0.1935  0.0139
  627SOL    HW1 1880  49.271  50.750  51.056 -2.0631  0.3573 -1.2836
  627SOL    HW2 1881  49.231  50.776  50.915 -0.1130  1.1719  3.5855
  628SOL     OW 1882  48.452  50.458  49.717  0.1866 -0.2826  0.2373
  628SOL    HW1 1883  48.444  50.504  49.800  0.9205 -3.3068 -1.4270
  628SOL    HW2 1884  48.428  50.372  49.748  3.0030  1.9021  0.8250
  629SOL     OW 1885  49.211  50.759  50.178  0.0800  0.1023  0.0290
  629SOL    HW1 1886  49.302  50.747  50.155  1.4799 -0.4590  0.1926
  629SOL    HW2 1887  49.166  50.796  50.100  0.5929  1.1212  2.4216
  630SOL     OW 1888  50.599  49.844  51.547 -0.5150  0.5408 -0.2163
  630SOL    HW1 1889  50.666  49.772  51.546 -2.2150  1.2718  0.4453
  630SOL    HW2 1890  50.645  49.927  51.530 -0.3811 -0.1545  0.4728
  631SOL     OW 1891  50.592  51.392  50.615 -0.4579 -0.1189 -0.7874
  631SOL    HW1 1892  50.654  51.414  50.545  1.3053  0.3593  0.9347
  631SOL    HW2 1893  50.632  51.316  50.657 -1.6745  1.7424 -1.6223
  632SOL     OW 1894  49.678  50.381  48.546  0.0193  0.2398  0.1888
  632SOL    HW1 1895  49.599  50.424  48.583  4.0047  1.1769  0.7041
  632SOL    HW2 1896  49.705  50.311  48.601  0.6505  1.6495 -1.4585
  633SOL     OW 1897  50.916  49.732  50.594  0.2835 -0.0044 -0.2955
  633SOL    HW1 1898  50.896  49.640  50.571  0.5453  2.5034 -1.5611
  633SOL    HW2 1899  50.938  49.768  50.510 -0.3490 -0.7914  1.6862
  634SOL     OW 1900  50.626  49.237  50.932 -0.0088 -0.3499 -0.2818
  634SOL    HW1 1901  50.567  49.311  50.955 -1.7837  1.6691 -0.1079
  634SOL    HW2 1902  50.677  49.219  51.015 -4.2006  0.4541 -0.1310
  635SOL     OW 1903  51.602  50.290  49.632  0.7919 -0.3517  0.4014
  635SOL    HW1 1904  51.611  50.300  49.537  0.6420  0.7554  1.3524
  635SOL    HW2 1905  51.525  50.348  49.653 -0.8693  0.3841  0.3435
  636SOL     OW 1906  50.359  49.084  49.664  0.3885 -0.2639  0.0546
  636SOL    HW1 1907  50.298  49.084  49.590 -0.0008  1.6719  0.3976
  636SOL    HW2 1908  50.334  49.004  49.710 -0.8593 -0.5814 -2.3990
  637SOL     OW 1909  50.278  50.723  49.075  0.0968 -0.1701 -0.2398
  637SOL    HW1 1910  50.230  50.723  49.160 -0.1736 -0.4654  0.0245
  637SOL    HW2 1911  50.360  50.773  49.097 -4.0237  2.9155 -0.8858
  638SOL     OW 1912  49.732  49.584  50.954 -0.1370 -0.1765  0.4069
  638SOL    HW1 1913  49.822  49.598  50.920  1.4154  1.8301  2.0835
  638SOL    HW2 1914  49.749  49.534  51.036 -0.3444 -1.7500 -1.2725
  639SOL     OW 1915  51.040  50.261  48.692 -0.1830  0.5160  0.3821
  639SOL    HW1 1916  51.099  50.251  48.767 -0.8100 -0.1247 -0.1031
  639SOL    HW2 1917  51.073  50.195  48.630 -0.2289  1.8233  1.9231
  640SOL     OW 1918  50.429  49.263  51.352 -0.3807  0.2536 -0.1255
  640SOL    HW1 1919  50.338  49.233  51.380  0.2510 -0.1588 -0.3528
  640SOL    HW2 1920  50.474  49.176  51.333 -0.8568  0.2300  0.4496
  641SOL     OW 1921  50.060  49.461  51.693  0.5429  0.0510  0.6503
  641SOL    HW1 1922  50.083  49.408  51.774 -0.0616 -2.6268  1.4999
  641SOL    HW2 1923  50.145  49.506  51.666 -0.0231  1.2456  0.2036
  642SOL     OW 1924  49.541  50.271  50.269  0.4048 -0.0792 -0.4275
  642SOL    HW1 1925  49.518  50.307  50.183 -1.1830 -0.7447  1.0098
  642SOL    HW2 1926  49.455  50.269  50.308 -0.5282 -1.0948 -1.1110
  643SOL     OW 1927  48.705  50.673  49.180  0.5265  0.1438 -0.8819
  643SOL    HW1 1928  48.695  50.612  49.104  0.7172 -1.2192  1.6392
  643SOL    HW2 1929  48.672  50.625  49.256 -0.0020  0.0892 -1.4458
  644SOL     OW 1930  51.237  49.628  50.381 -0.2598  0.1018  0.1214
  644SOL    HW1 1931  51.186  49.692  50.331 -0.4856 -1.8102  0.7483
  644SOL    HW2 1932  51.168  49.560  50.398 -1.3802  0.1940 -0.9829
  645SOL     OW 1933  49.777  49.438  51.200 -0.1224  0.1543 -0.5530
  645SOL    HW1 1934  49.712  49.493  51.254  0.1861  1.1139  2.4392
  645SOL    HW2 1935  49.840  49.417  51.273 -0.1698  0.0945 -0.2690
  646SOL     OW 1936  50.363  49.413  48.381  0.3037  0.5827 -0.2183
  646SOL    HW1 1937  50.442  49.364  48.407 -0.2884  0.9751 -1.4807
  646SOL    HW2 1938  50.291  49.347  48.383  0.4567  0.5178  2.2087
  647SOL     OW 1939  50.366  48.808  50.997  0.0781 -0.2018  0.2353
  647SOL    HW1 1940  50.388  48.710  50.986 -0.1078 -1.3156  1.6271
  647SOL    HW2 1941  50.453  48.851  51.020  1.6733  0.1004 -1.3724
  648SOL     OW 1942  49.860  50.094  50.771 -0.1200  0.2961 -0.0602
  648SOL    HW1 1943  49.807  50.157  50.714  0.8756  1.1704  2.5875
  648SOL    HW2 1944  49.953  50.115  50.742 -1.2188  1.1270 -1.2175
  649SOL     OW 1945  48.778  50.382  48.761 -0.2996  0.3190  0.0376
  649SOL    HW1 1946  48.834  50.457  48.724 -0.9232  0.0855 -0.1809
  649SOL    HW2 1947  48.762  50.318  48.688  1.2303 -1.0332  0.1454
  650SOL     OW 1948  49.956  49.410  51.431  0.1486  0.4794  0.0772
  650SOL    HW1 1949  49.979  49.496  51.386  0.5884  2.6937  0.7570
  650SOL    HW2 1950  49.987  49.435  51.521 -1.2517  1.1910  0.3681
  651SOL     OW 1951  48.521  50.696  49.490 -0.2730  0.6553  0.0400
  651SOL    HW1 1952  48.523  50.794  49.488  1.1406  0.4325  0.6039
  651SOL    HW2 1953  48.515  50.673  49.584  0.5825  1.5588 -1.1060
  652SOL     OW 1954  50.444  51.734  50.067  0.0062  0.1342  0.2562
  652SOL    HW1 1955  50.460  51.695  50.155  0.1594  2.2977  0.9853
  652SOL    HW2 1956  50.404  51.819  50.092 -0.2534  0.8107  1.3168
  653SOL     OW 1957  50.445  49.435  51.010  0.1885 -0.2261  0.0212
  653SOL    HW1 1958  50.424  49.420  51.103  1.2632  0.3713 -0.1466
  653SOL    HW2 1959  50.472  49.531  51.001 -1.3385 -1.6658 -0.9494
  654SOL     OW 1960  51.143  50.174  50.290 -0.2820  0.0389 -0.1549
  654SOL    HW1 1961  51.129  50.249  50.235 -1.1655 -1.1480  0.3575
  654SOL    HW2 1962  51.070  50.179  50.352  1.6063  0.5030 -0.3602
  655SOL     OW 1963  50.325  51.121  49.961  0.2750  0.3240  0.3998
  655SOL    HW1 1964  50.262  51.101  50.032 -0.7333 -1.0427  0.1630
  655SOL    HW2 1965  50.274  51.175  49.900 -1.5926  0.1901  0.4800
  656SOL     OW 1966  50.592  49.601  48.412 -0.0307 -0.1168 -0.1926
  656SOL    HW1 1967  50.574  49.692  48.389 -1.7166  0.3456  2.2268
  656SOL    HW2 1968  50.520  49.553  48.369  0.1332  0.0367 -0.6115
  657SOL     OW 1969  49.626  50.351  50.930  0.2642 -0.4964  0.2086
  657SOL    HW1 1970  49.565  50.430  50.918  0.2745 -0.9163 -0.8272
  657SOL    HW2 1971  49.620  50.308  50.843  1.2007  0.4025  0.3847
  658SOL     OW 1972  50.144  49.665  49.318 -0.0628  0.5625 -0.0269
  658SOL    HW1 1973  50.083  49.706  49.257  2.6427 -1.8576  0.4946
  658SOL    HW2 1974  50.140  49.575  49.287 -0.1998  0.1990 -0.3489
  659SOL     OW 1975  49.865  50.534  49.163 -0.1706  0.4908 -0.1183
  659SOL    HW1 1976  49.808  50.464  49.204 -0.4552 -0.2871  0.2881
  659SOL    HW2 1977  49.958  50.503  49.177 -0.4623  0.6880 -0.7315
  660SOL     OW 1978  49.960  49.141  49.015 -0.2513 -0.5139  0.1375
  660SOL    HW1 1979  50.057  49.153  48.991 -1.2591 -0.9964  0.7469
  660SOL    HW2 1980  49.953  49.044  49.006  0.0428 -0.9545 -1.6816
  661SOL     OW 1981  49.416  48.517  50.607 -0.0835  0.3462 -0.2639
  661SOL    HW1 1982  49.397  48.534  50.702 -0.5980  0.4637 -0.7604
  661SOL    HW2 1983  49.507  48.479  50.609 -1.1690  1.1059  1.3380
  662SOL     OW 1984  48.946  50.648  50.950 -0.4714  0.3020  0.4539
  662SOL    HW1 1985  48.934  50.594  51.035  1.2922  0.9434  0.2848
  662SOL    HW2 1986  49.030  50.694  50.971 -1.3698 -1.4469  0.1013
  663SOL     OW 1987  48.675  51.006  49.554 -0.1179  0.1438  0.0892
  663SOL    HW1 1988  48.717  50.918  49.540  0.2173  1.3743  0.6145
  663SOL    HW2 1989  48.741  51.060  49.510  1.4245 -1.8531  2.1633
  664SOL     OW 1990  48.875  48.805  50.641 -0.2527 -0.0288 -0.3163
  664SOL    HW1 1991  48.961  48.756  50.634 -0.9335  0.5719  0.4289
  664SOL    HW2 1992  48.830  48.766  50.717 -1.0682  0.2521  0.1332
  665SOL     OW 1993  51.593  50.283  49.335  0.3159  0.4798  0.5045
  665SOL    HW1 1994  51.666  50.335  49.297 -1.4609  1.6790  1.1219
  665SOL    HW2 1995  51.530  50.282  49.259  0.9556  1.7206  1.3250
  666SOL     OW 1996  49.028  50.191  49.935 -0.5937  0.6874 -0.0553
  666SOL    HW1 1997  49.058  50.225  49.848 -0.5686  2.0202  0.7163
  666SOL    HW2 1998  49.081  50.246  49.998  0.4087 -1.6935  0.7440
  667SOL     OW 1999  48.983  49.515  49.086 -0.0172 -0.2384 -0.2599
  667SOL    HW1 2000  49.034  49.553  49.010 -0.3472 -2.1022 -2.0100
  667SOL    HW2 2001  48.936  49.449  49.027  1.5759  1.0756 -0.0988
  668SOL     OW 2002  49.231  49.788  50.726  0.2295 -0.5862  0.2509
  668SOL    HW1 2003  49.214  49.866  50.782  1.7888 -1.4063 -1.1368
  668SOL    HW2 2004  49.325  49.808  50.705 -0.6995  1.1373  0.1726
  669SOL     OW 2005  50.681  49.253  50.539 -0.0361 -0.3487  0.0096
  669SOL    HW1 2006  50.611  49.189  50.561  1.8378 -1.1774 -0.4306
  669SOL    HW2 2007  50.756  49.191  50.553  0.1586  0.2259  1.7202
  670SOL     OW 2008  48.528  50.632  49.970  0.1955  0.1281 -0.1652
  670SOL    HW1 2009  48.477  50.711  49.992  0.6775  0.1047 -0.4135
  670SOL    HW2 2010  48.578  50.618  50.055  0.4367 -1.3366  0.7709
  671SOL     OW 2011  49.985  49.180  49.300 -0.3161  0.3815  0.0202
  671SOL    HW1 2012  49.981  49.163  49.203 -0.5540 -0.4117  2.0031
  671SOL    HW2 2013  49.895  49.173  49.331  0.5649  0.6945  2.1151
  672SOL     OW 2014  49.016  49.873  51.095  0.1793 -0.0429 -0.1479
  672SOL    HW1 2015  49.033  49.800  51.163  0.7235  0.1944  2.1190
  672SOL    HW2 2016  49.042  49.951  51.152  2.0481 -0.2614  0.0472
  673SOL     OW 2017  49.779  48.448  50.675  0.1864  0.3821  0.0833
  673SOL    HW1 2018  49.741  48.450  50.586  0.7428  2.0754  2.4748
  673SOL    HW2 2019  49.874  48.464  50.667 -0.2303  1.4641  0.5608
  674SOL     OW 2020  49.509  50.538  48.752 -0.2234 -0.2856 -0.1280
  674SOL    HW1 2021  49.461  50.622  48.768 -0.9337 -0.7288  0.3858
  674SOL    HW2 2022  49.503  50.487  48.835  0.2604 -0.6521 -3.7813
  675SOL     OW 2023  48.607  50.837  50.440  0.0283  0.3539 -0.2717
  675SOL    HW1 2024  48.605  50.795  50.529 -2.9739 -1.0774  0.4156
  675SOL    HW2 2025  48.535  50.784  50.391  0.4393 -0.3093 -0.2170
  676SOL     OW 2026  51.517  49.877  50.290  0.3712  0.1862  0.0742
  676SOL    HW1 2027  51.555  49.897  50.380 -2.1537 -0.4264 -1.9910
  676SOL    HW2 2028  51.589  49.890  50.228 -0.0555  2.8595  1.8114
  677SOL     OW 2029  49.863  49.135  50.093 -0.1758  0.2305  0.1480
  677SOL    HW1 2030  49.820  49.080  50.164  1.9698 -1.1443 -0.1443
  677SOL    HW2 2031  49.921  49.067  50.059 -0.5777 -0.0252 -0.2488
  678SOL     OW 2032  50.922  50.073  49.584  0.1997 -0.3198  0.0470
  678SOL    HW1 2033  51.015  50.073  49.566 -1.5751  1.5946 -0.8295
  678SOL    HW2 2034  50.904  50.157  49.535  1.5546 -1.1756 -0.7856
  679SOL     OW 2035  49.476  49.543  50.851 -0.2693  0.0057  0.1553
  679SOL    HW1 2036  49.565  49.558  50.897 -0.5399  0.0127 -1.4278
  679SOL    HW2 2037  49.476  49.617  50.788  0.6619  1.9858 -1.3643
  680SOL     OW 2038  50.062  50.106  51.439 -0.3434  0.6484 -0.0159
  680SOL    HW1 2039  50.070  50.149  51.524  0.5731  0.5180  0.9637
  680SOL    HW2 2040  49.966  50.109  51.420  0.7920  1.2297  1.0604
  681SOL     OW 2041  50.580  50.488  49.006 -0.1028 -0.2914 -0.1806
  681SOL    HW1 2042  50.630  50.407  49.008 -2.3890  1.8564  1.3810
  681SOL    HW2 2043  50.492  50.466  49.033  1.5587  0.8198 -0.7302
  682SOL     OW 2044  49.370  49.496  50.109  0.0627  0.2983  0.2890
  682SOL    HW1 2045  49.283  49.462  50.138  0.1821 -0.3574 -0.3595
  682SOL    HW2 2046  49.431  49.415  50.109  0.5839  1.7900 -1.2937
  683SOL     OW 2047  49.250  50.346  51.104  0.5661 -0.0275 -0.1017
  683SOL    HW1 2048  49.285  50.427  51.063 -0.0001 -0.2760 -1.7985
  683SOL    HW2 2049  49.290  50.271  51.055 -0.8654  1.8437  1.7194
  684SOL     OW 2050  50.057  48.916  49.447 -0.4389  0.8012 -0.4729
  684SOL    HW1 2051  50.016  48.979  49.390 -0.1139 -2.4699  0.4089
  684SOL    HW2 2052  50.150  48.918  49.420 -1.5691 -0.4281 -2.4738
  685SOL     OW 2053  49.799  49.729  48.557 -0.1614  0.7753 -0.2539
  685SOL    HW1 2054  49.829  49.817  48.578 -0.6417 -0.9714  2.6888
  685SOL    HW2 2055  49.845  49.711  48.473  2.7184  0.3662  2.6851
  686SOL     OW 2056  50.768  50.251  49.028  0.2791 -0.5930 -0.2402
  686SOL    HW1 2057  50.704  50.218  48.964 -0.1883 -1.9082 -0.5763
  686SOL    HW2 2058  50.798  50.163  49.057 -0.4018  0.9356 -1.3184
  687SOL     OW 2059  48.452  49.545  50.270  0.4664  0.2679 -0.0151
  687SOL    HW1 2060  48.395  49.464  50.282  1.5884  1.9696 -1.3525
  687SOL    HW2 2061  48.541  49.509  50.272 -1.3991 -0.3100  0.2902
  688SOL     OW 2062  50.070  49.076  48.587  0.2387  0.0202  0.4019
  688SOL    HW1 2063  50.064  49.168  48.616  0.7887 -2.9973 -0.2836
  688SOL    HW2 2064  50.164  49.053  48.596 -1.6240  1.5188  0.1335
  689SOL     OW 2065  48.902  49.327  48.916 -0.0398 -0.2151  0.3041
  689SOL    HW1 2066  48.836  49.271  48.872 -0.0209  0.0786 -1.2743
  689SOL    HW2 2067  48.987  49.292  48.882 -1.3862  0.0502  0.9917
  690SOL     OW 2068  48.702  48.913  49.869  0.1285  0.0364 -0.5906
  690SOL    HW1 2069  48.761  48.893  49.946 -0.0867 -0.0658  0.5330
  690SOL    HW2 2070  48.614  48.921  49.910  2.7503  1.0049 -1.9296
  691SOL     OW 2071  50.881  49.811  48.911 -0.3581 -0.2687 -0.3326
  691SOL    HW1 2072  50.847  49.768  48.992 -0.2922 -0.4867 -0.7452
  691SOL    HW2 2073  50.903  49.734  48.854  0.1464  1.2017  0.7051
  692SOL     OW 2074  49.456  50.189  49.672 -0.3724 -0.0627  0.1689
  692SOL    HW1 2075  49.442  50.168  49.578 -1.4267  0.0433  1.5831
  692SOL    HW2 2076  49.434  50.103  49.714 -1.4406 -0.3169 -1.3572
  693SOL     OW 2077  50.174  48.306  49.912 -0.0012 -0.3300 -0.4446
  693SOL    HW1 2078  50.205  48.226  49.871 -0.2445  1.7403 -0.6509
  693SOL    HW2 2079  50.242  48.373  49.909 -0.0679  2.7312  1.7895
  694SOL     OW 2080  51.210  48.834  49.830 -0.7753  0.0372  0.0072
  694SOL    HW1 2081  51.226  48.795  49.918 -1.7207  0.0043 -1.5265
  694SOL    HW2 2082  51.179  48.925  49.845  0.4055  0.6666  0.4155
  695SOL     OW 2083  50.030  51.322  49.176 -0.1782 -0.0489  0.5322
  695SOL    HW1 2084  50.042  51.225  49.156  0.4398  0.8123 -0.9279
  695SOL    HW2 2085  49.942  51.324  49.227 -0.5506 -0.7904  0.5034
  696SOL     OW 2086  50.141  50.221  51.684 -0.1291 -0.0879 -0.4177
  696SOL    HW1 2087  50.224  50.172  51.672 -0.2237  1.7995  1.2827
  696SOL    HW2 2088  50.146  50.237  51.780 -0.9143 -1.1105 -1.9322
  697SOL     OW 2089  48.619  49.924  49.809  0.3201 -0.0544  0.0980
  697SOL    HW1 2090  48.672  49.976  49.870 -0.8697 -3.2226  1.5563
  697SOL    HW2 2091  48.658  49.836  49.822 -2.0188 -0.0889  0.0055
  698SOL     OW 2092  49.480  50.631  48.476 -0.0784 -0.4648  0.2918
  698SOL    HW1 2093  49.483  50.624  48.571  0.9151 -0.3877 -0.9556
  698SOL    HW2 2094  49.549  50.697  48.454 -1.3084 -0.0056  0.6972
  699SOL     OW 2095  51.512  50.619  49.421 -0.3432  0.2386 -0.0724
  699SOL    HW1 2096  51.425  50.576  49.420 -1.1203  1.3353 -0.7706
  699SOL    HW2 2097  51.489  50.699  49.369 -1.8712 -1.6104  1.0951
  700SOL     OW 2098  50.621  49.115  49.865  0.2327 -0.0892 -0.1528
  700SOL    HW1 2099  50.525  49.121  49.860  0.8202 -0.5218  0.6158
  700SOL    HW2 2100  50.650  49.161  49.785 -1.9088  0.1727  1.9764
  701SOL     OW 2101  49.213  49.002  50.709  0.5474 -0.1838  0.0472
  701SOL    HW1 2102  49.300  49.028  50.746  0.5116  0.7916  0.6390
  701SOL    HW2 2103  49.146  49.066  50.748  1.1741 -0.7775  0.4013
  702SOL     OW 2104  51.641  49.928  49.768 -0.1796 -0.0690  0.2739
  702SOL    HW1 2105  51.644  49.990  49.840  1.1414 -2.8238 -0.1660
  702SOL    HW2 2106  51.570  49.868  49.794 -2.1083  0.5558  0.6382
  703SOL     OW 2107  50.368  49.799  50.794  0.5159 -0.6902 -0.0786
  703SOL    HW1 2108  50.389  49.746  50.714 -0.2632  0.6879 -0.6659
  703SOL    HW2 2109  50.408  49.754  50.872  1.1037 -1.2911 -0.3477
  704SOL     OW 2110  48.626  50.212  50.499  0.0521  0.4846  0.0049
  704SOL    HW1 2111  48.631  50.255  50.588 -0.7801  1.4926  0.1414
  704SOL    HW2 2112  48.556  50.142  50.514  1.0940  0.2945  0.4072
  705SOL     OW 2113  50.564  50.868  49.965  0.3924 -0.0996 -0.1298
  705SOL    HW1 2114  50.484  50.856  49.911 -0.6371  2.3789 -0.8339
  705SOL    HW2 2115  50.628  50.906  49.900  0.8538  0.0903  1.9095
  706SOL     OW 2116  50.515  49.691  51.005  0.4169  0.4549 -0.5533
  706SOL    HW1 2117  50.602  49.721  50.975 -2.4541 -0.1458  0.3713
  706SOL    HW2 2118  50.520  49.732  51.090  0.8647  1.6621 -2.9674
  707SOL     OW 2119  49.828  50.302  50.329 -0.6135  0.5321 -0.0217
  707SOL    HW1 2120  49.871  50.296  50.242 -1.0843  0.4052  0.3475
  707SOL    HW2 2121  49.737  50.267  50.317  3.6903 -0.5440  0.2980
  708SOL     OW 2122  49.154  49.433  51.313  0.1633  0.1523  0.1416
  708SOL    HW1 2123  49.137  49.395  51.224 -1.2694  2.5630 -2.1841
  708SOL    HW2 2124  49.079  49.496  51.311 -1.2543 -1.2163 -2.0033
  709SOL     OW 2125  50.398  49.787  48.821  0.0197 -0.3900 -0.0009
  709SOL    HW1 2126  50.434  49.699  48.796 -1.6945  1.2759 -0.0889
  709SOL    HW2 2127  50.458  49.852  48.787  1.1050 -0.5361  0.0066
  710SOL     OW 2128  50.291  50.474  49.603 -0.2495  0.9128  0.1676
  710SOL    HW1 2129  50.358  50.529  49.558 -1.5034  1.0163 -1.9952
  710SOL    HW2 2130  50.323  50.389  49.576  0.8101  2.3524  0.2975
  711SOL     OW 2131  50.591  51.171  49.971 -0.1647  0.8549  0.3239
  711SOL    HW1 2132  50.497  51.134  49.950 -0.9038 -1.4774 -0.0918
  711SOL    HW2 2133  50.637  51.120  49.899  1.0402 -2.0335 -1.1166
  712SOL     OW 2134  49.747  49.941  48.299  0.3213  0.1459  0.5321
  712SOL    HW1 2135  49.673  49.897  48.251 -1.3018 -1.3354  0.5720
  712SOL    HW2 2136  49.701  50.020  48.346 -0.4348  0.0661  0.7924
  713SOL     OW 2137  48.766  50.102  49.228 -0.0257  0.3323 -0.4253
  713SOL    HW1 2138  48.715  50.075  49.145 -1.7743  0.1068 -0.1172
  713SOL    HW2 2139  48.694  50.096  49.294 -0.5250 -0.7147  1.1035
  714SOL     OW 2140  50.677  48.480  50.575  0.1344 -0.3221 -0.1948
  714SOL    HW1 2141  50.702  48.575  50.574 -2.1943  0.3498  0.5681
  714SOL    HW2 2142  50.732  48.439  50.645  0.1551  0.7351  0.6551
  715SOL     OW 2143  51.608  50.638  49.681 -0.0120  0.0820  0.1039
  715SOL    HW1 2144  51.577  50.552  49.710  0.1966 -1.6419  0.5572
  715SOL    HW2 2145  51.589  50.630  49.585 -0.3815 -1.3251  1.3693
  716SOL     OW 2146  50.515  49.670  49.138 -0.7661  0.1614 -0.5405
  716SOL    HW1 2147  50.498  49.684  49.235 -0.0700 -2.3077  0.7749
  716SOL    HW2 2148  50.478  49.747  49.086  0.6788 -0.6432  0.5370
  717SOL     OW 2149  49.557  49.618  48.478  0.1341 -0.1236 -0.0088
  717SOL    HW1 2150  49.641  49.665  48.499 -1.6329 -1.0159 -1.5335
  717SOL    HW2 2151  49.586  49.553  48.411  0.0006  0.6243  0.1929
  718SOL     OW 2152  50.232  50.931  50.230 -0.5520 -0.5584 -0.1203
  718SOL    HW1 2153  50.246  50.929  50.332  1.4679 -1.3355  0.8437
  718SOL    HW2 2154  50.320  50.935  50.188 -1.9150 -0.5648 -3.2218
  719SOL     OW 2155  49.466  49.230  49.515  0.0062  0.3609 -0.0058
  719SOL    HW1 2156  49.382  49.274  49.500 -0.0719 -0.1161  3.3568
  719SOL    HW2 2157  49.471  49.225  49.611  1.9217  0.1167 -1.7953
  720SOL     OW 2158  51.095  50.373  50.120 -0.0091  0.4438 -0.5322
  720SOL    HW1 2159  51.068  50.465  50.122  0.9143  0.0936 -1.0741
  720SOL    HW2 2160  51.117  50.365  50.026 -1.9388  1.6651  1.3075
  721SOL     OW 2161  50.517  48.563  49.256  0.0188  0.0734  0.2676
  721SOL    HW1 2162  50.468  48.484  49.280  0.6568  2.1451  0.8116
  721SOL    HW2 2163  50.477  48.626  49.317 -1.3663 -1.4368  0.0799
  722SOL     OW 2164  51.379  48.940  49.605 -0.7115 -0.2518 -0.1348
  722SOL    HW1 2165  51.308  48.998  49.571  1.5665 -0.0168  0.5972
  722SOL    HW2 2166  51.339  48.883  49.672  1.2453 -2.2949 -0.0595
  723SOL     OW 2167  50.874  50.015  49.111 -0.4060 -0.0359  0.0709
  723SOL    HW1 2168  50.875  49.934  49.166 -0.4185  2.1275 -2.0299
  723SOL    HW2 2169  50.916  49.979  49.034  0.8821  1.1787  1.0082
  724SOL     OW 2170  49.531  49.492  49.871  0.3212  0.2328  0.1901
  724SOL    HW1 2171  49.453  49.516  49.927  0.6631  0.2883 -1.5690
  724SOL    HW2 2172  49.545  49.567  49.812  0.6850 -0.0922  0.6269
  725SOL     OW 2173  50.396  51.307  49.025  0.6325 -0.3832  0.5779
  725SOL    HW1 2174  50.492  51.305  49.057 -1.0323  1.4598  0.4413
  725SOL    HW2 2175  50.367  51.388  49.064  0.8509  1.2383  0.4129
  726SOL     OW 2176  49.089  50.663  51.349  0.5289 -0.1453  0.4309
  726SOL    HW1 2177  49.009  50.684  51.398 -0.0101 -0.8621 -0.8247
  726SOL    HW2 2178  49.052  50.597  51.285  0.5278 -0.7372  1.5742
  727SOL     OW 2179  51.204  49.199  49.516  0.2205 -0.0298  0.1927
  727SOL    HW1 2180  51.121  49.194  49.568 -1.3454 -1.5652 -0.4887
  727SOL    HW2 2181  51.167  49.174  49.431 -0.3810 -0.2592  0.5349
  728SOL     OW 2182  51.271  50.309  51.002 -0.1448  0.1945 -0.4242
  728SOL    HW1 2183  51.255  50.227  50.953  0.1772  0.8486  0.0180
  728SOL    HW2 2184  51.356  50.291  51.045  0.0512 -2.3899 -0.0913
  729SOL     OW 2185  49.857  50.812  50.032  0.0321  0.6363  0.2060
  729SOL    HW1 2186  49.932  50.755  50.019 -0.2735  2.1860  0.7662
  729SOL    HW2 2187  49.777  50.762  50.024  0.9453  1.3606 -2.8395
  730SOL     OW 2188  48.689  51.209  49.955  0.1483 -0.0391  0.7068
  730SOL    HW1 2189  48.775  51.242  49.936 -0.8070  2.0434  1.5149
  730SOL    HW2 2190  48.681  51.123  49.905  1.2150  1.0955  0.7349
  731SOL     OW 2191  51.079  50.659  50.197 -0.0893 -0.0982 -0.1841
  731SOL    HW1 2192  51.139  50.740  50.188 -1.5469 -0.2592  0.7716
  731SOL    HW2 2193  50.993  50.699  50.177 -0.3014  2.8137  0.5954
  732SOL     OW 2194  50.117  51.300  51.096  0.0295 -0.8685 -0.2234
  732SOL    HW1 2195  50.020  51.288  51.113  0.7906 -0.5720 -0.3035
  732SOL    HW2 2196  50.159  51.215  51.116 -0.1491  0.3904 -1.5877
  733SOL     OW 2197  50.804  49.994  48.735 -0.0423  0.3917 -0.1394
  733SOL    HW1 2198  50.827  49.945  48.816  0.5757  0.4656  0.7962
  733SOL    HW2 2199  50.740  49.931  48.688  1.2790 -0.9254  0.5116
  734SOL     OW 2200  50.096  48.739  50.309 -0.4211  0.5268  0.1413
  734SOL    HW1 2201  50.026  48.769  50.248  0.7949  3.1976  0.4198
  734SOL    HW2 2202  50.124  48.826  50.347  0.1607  0.2190  0.8849
  735SOL     OW 2203  48.601  50.050  50.230 -0.3232 -0.2391 -0.7435
  735SOL    HW1 2204  48.583  49.953  50.219  0.6808  0.9415 -2.3058
  735SOL    HW2 2205  48.671  50.054  50.299 -1.9351 -1.4922 -0.6667
  736SOL     OW 2206  48.671  49.417  50.344  0.0942 -0.3359  0.3216
  736SOL    HW1 2207  48.620  49.407  50.422  0.6355 -1.7057 -0.5451
  736SOL    HW2 2208  48.745  49.355  50.359 -0.3310  2.9791  0.0460
  737SOL     OW 2209  50.710  50.145  49.319 -0.2860 -0.6286  0.2889
  737SOL    HW1 2210  50.716  50.076  49.253  1.5765  0.6861  2.9813
  737SOL    HW2 2211  50.799  50.177  49.338 -0.6638  1.9814  0.1333
  738SOL     OW 2212  50.699  51.407  50.042 -0.3584 -0.4145  0.4903
  738SOL    HW1 2213  50.679  51.477  49.975 -0.5601 -0.1340 -0.2886
  738SOL    HW2 2214  50.676  51.318  50.004 -0.5197  0.3063 -0.4678
  739SOL     OW 2215  49.167  48.876  50.973  0.2589 -0.1427 -0.1601
  739SOL    HW1 2216  49.096  48.942  50.959  2.7609 -2.1759 -0.6214
  739SOL    HW2 2217  49.247  48.920  51.003  0.1738  0.4151 -0.0135
  740SOL     OW 2218  49.402  49.478  48.836  0.2016  0.0326  0.2897
  740SOL    HW1 2219  49.378  49.490  48.742  2.0383 -1.7857 -0.3247
  740SOL    HW2 2220  49.453  49.394  48.825  0.3296  1.6056  0.0009
  741SOL     OW 2221  48.898  49.091  49.820 -0.0099  0.0457 -0.0813
  741SOL    HW1 2222  48.820  49.029  49.832  0.1568  1.2629  1.2631
  741SOL    HW2 2223  48.911  49.124  49.910 -0.6263 -1.4094  0.2342
  742SOL     OW 2224  50.390  48.749  50.042 -0.0498  0.2251  0.1142
  742SOL    HW1 2225  50.323  48.679  50.019 -1.7064  0.3535  2.5357
  742SOL    HW2 2226  50.395  48.739  50.141  0.0932 -0.4213  0.1743
  743SOL     OW 2227  50.797  50.811  50.186 -0.3423 -0.3628 -0.1468
  743SOL    HW1 2228  50.816  50.836  50.091  0.6009 -1.1663 -0.2927
  743SOL    HW2 2229  50.698  50.803  50.193  1.1153 -2.0666 -0.6715
  744SOL     OW 2230  50.888  50.790  51.134  0.0500 -0.1180  0.2164
  744SOL    HW1 2231  50.940  50.873  51.133 -1.7272 -1.9854  1.5469
  744SOL    HW2 2232  50.803  50.828  51.113  0.8720  2.4236 -0.1640
  745SOL     OW 2233  50.577  50.357  50.460 -0.1812  0.0654  0.6517
  745SOL    HW1 2234  50.606  50.384  50.369  1.8137 -2.3647  0.5655
  745SOL    HW2 2235  50.648  50.387  50.519  0.6362  0.0873 -2.2143
  746SOL     OW 2236  48.797  49.545  50.726  0.1467  0.2993  0.1374
  746SOL    HW1 2237  48.717  49.577  50.680  1.8854  0.9679  2.6494
  746SOL    HW2 2238  48.823  49.621  50.779 -1.1580 -1.3431  0.2308
  747SOL     OW 2239  49.607  50.558  49.709 -0.1016 -0.6070 -0.4701
  747SOL    HW1 2240  49.646  50.550  49.616 -0.9913 -0.6210 -0.0397
  747SOL    HW2 2241  49.612  50.653  49.727  0.2697 -1.4446 -1.2326
  748SOL     OW 2242  50.103  51.376  49.561  0.8403 -0.1367 -0.2570
  748SOL    HW1 2243  50.130  51.377  49.654  0.5760  0.9431 -0.4861
  748SOL    HW2 2244  50.009  51.350  49.564  2.0830  1.1261 -1.0423
  749SOL     OW 2245  51.364  49.166  50.094  0.3128  0.3523 -0.4176
  749SOL    HW1 2246  51.455  49.191  50.122 -0.8779 -2.3161 -2.4535
  749SOL    HW2 2247  51.345  49.225  50.022  1.4277  1.9996 -0.7527
  750SOL     OW 2248  50.026  50.578  49.537 -0.0158 -0.2086 -0.3364
  750SOL    HW1 2249  50.104  50.527  49.559 -3.6018  0.1908 -0.3059
  750SOL    HW2 2250  50.005  50.616  49.621  1.7281  0.2884  0.7132
  751SOL     OW 2251  51.170  50.975  49.851 -0.2197  0.1511 -0.2093
  751SOL    HW1 2252  51.265  50.969  49.889  1.5866 -0.9617 -1.4709
  751SOL    HW2 2253  51.183  50.930  49.765  1.0310 -0.9356 -1.0583
  752SOL     OW 2254  49.135  49.178  48.860 -0.0434  0.0188 -0.4362
  752SOL    HW1 2255  49.136  49.101  48.920  1.0309  1.9776 -1.8349
  752SOL    HW2 2256  49.219  49.163  48.812 -1.2982 -1.2977 -0.1703
  753SOL     OW 2257  49.200  50.348  50.108  0.2204  0.4054  0.1730
  753SOL    HW1 2258  49.258  50.428  50.123  0.4081 -2.1343  0.9846
  753SOL    HW2 2259  49.203  50.300  50.196  0.4753  1.3260  0.5467
  754SOL     OW 2260  50.321  50.373  49.089 -0.0366  0.0399  0.4184
  754SOL    HW1 2261  50.286  50.410  49.008  1.4226 -0.5114  0.3672
  754SOL    HW2 2262  50.266  50.415  49.163  0.3147 -0.5507 -1.6711
  755SOL     OW 2263  50.262  50.961  50.492  0.0832 -0.4295 -0.4020
  755SOL    HW1 2264  50.203  50.951  50.567  0.6650  0.1260  0.0056
  755SOL    HW2 2265  50.271  51.060  50.481  0.0677 -1.4689 -1.9528
  756SOL     OW 2266  51.391  50.193  49.162  0.2255 -0.4392 -0.0473
  756SOL    HW1 2267  51.401  50.101  49.193 -0.4663  2.1491 -0.8481
  756SOL    HW2 2268  51.296  50.199  49.143  1.9729 -1.3352  3.4795
  757SOL     OW 2269  48.706  50.626  50.169 -0.1238 -0.1174 -0.4502
  757SOL    HW1 2270  48.744  50.719  50.175  0.9751 -0.0704  0.4102
  757SOL    HW2 2271  48.781  50.569  50.140  0.3326  0.0152  0.2646
  758SOL     OW 2272  49.986  49.465  50.995 -0.4626  1.1241 -0.3442
  758SOL    HW1 2273  49.926  49.387  51.003  1.0951 -0.4620 -2.2237
  758SOL    HW2 2274  50.050  49.428  50.930 -0.8689 -0.8697 -1.4824
  759SOL     OW 2275  51.502  49.533  50.741 -0.3708  0.3040 -0.2227
  759SOL    HW1 2276  51.478  49.440  50.735  1.3826  1.7993 -2.4667
  759SOL    HW2 2277  51.523  49.549  50.646 -0.3051  0.6337  0.4170
  760SOL     OW 2278  50.241  50.853  51.390  0.0279  0.2638  0.7190
  760SOL    HW1 2279  50.237  50.764  51.350 -0.1240 -0.6138 -2.7484
  760SOL    HW2 2280  50.322  50.859  51.443 -2.0666 -2.1680 -1.6725
  761SOL     OW 2281  49.537  50.776  50.739  0.2725  0.0675  0.2099
  761SOL    HW1 2282  49.445  50.809  50.741  1.3816  0.4838  0.5590
  761SOL    HW2 2283  49.577  50.831  50.810 -0.4379  0.1826 -1.9407
  762SOL     OW 2284  49.243  49.431  49.481  0.4969 -0.5868 -0.0255
  762SOL    HW1 2285  49.210  49.494  49.417  0.4847 -0.9161  0.1978
  762SOL    HW2 2286  49.161  49.395  49.518  1.6419  2.0002 -1.6832
  763SOL     OW 2287  49.876  51.072  50.917 -0.1293 -0.2532  0.1242
  763SOL    HW1 2288  49.857  51.149  50.973  1.2182  1.0200  0.2255
  763SOL    HW2 2289  49.934  51.026  50.982  0.6555  1.9347  0.4477
  764SOL     OW 2290  49.305  51.268  50.449  0.5239 -0.5274  0.1535
  764SOL    HW1 2291  49.337  51.208  50.520 -0.1964 -0.8379 -0.5216
  764SOL    HW2 2292  49.236  51.215  50.406  0.2921  0.4270  0.4632
  765SOL     OW 2293  51.198  49.232  50.555 -0.5419 -0.2204  0.2399
  765SOL    HW1 2294  51.154  49.297  50.498  0.4113  0.1829 -1.7983
  765SOL    HW2 2295  51.222  49.166  50.491  0.1159  1.9995  0.5521
  766SOL     OW 2296  48.974  50.585  50.477 -0.5171 -0.7345  0.4784
  766SOL    HW1 2297  49.003  50.603  50.389 -2.4736  0.6782  0.9662
  766SOL    HW2 2298  48.897  50.530  50.462 -1.2773  0.0927  0.9931
  767SOL     OW 2299  50.803  50.463  49.234 -0.4207 -0.5274 -0.2303
  767SOL    HW1 2300  50.794  50.545  49.180 -1.4245 -2.9816 -1.0235
  767SOL    HW2 2301  50.769  50.391  49.181  2.1957 -0.9763  1.2777
  768SOL     OW 2302  50.251  49.670  51.711  0.2265 -0.3051 -0.2522
  768SOL    HW1 2303  50.277  49.661  51.621  0.0364  0.1987  1.9677
  768SOL    HW2 2304  50.280  49.757  51.734 -0.3106 -2.0461  0.8650
  769SOL     OW 2305  49.224  48.580  49.651  0.2756  0.6651 -0.8329
  769SOL    HW1 2306  49.234  48.585  49.555 -1.1235 -1.4143  0.3397
  769SOL    HW2 2307  49.253  48.491  49.670 -1.8146  1.4929 -2.4465
  770SOL     OW 2308  49.600  49.825  49.839  0.1452 -0.5873 -0.1309
  770SOL    HW1 2309  49.638  49.774  49.917  0.7635 -0.1182  0.3898
  770SOL    HW2 2310  49.679  49.870  49.805  1.0151 -0.4134  0.2081
  771SOL     OW 2311  50.345  49.235  50.815  0.1174  0.7784  0.0261
  771SOL    HW1 2312  50.421  49.276  50.863 -1.6606 -0.4999 -0.3933
  771SOL    HW2 2313  50.290  49.188  50.882 -1.9481 -2.2034 -1.4145
  772SOL     OW 2314  50.242  49.640  48.592  0.0569 -0.8427 -0.5921
  772SOL    HW1 2315  50.285  49.568  48.546 -0.0315  0.5970  0.2064
  772SOL    HW2 2316  50.235  49.607  48.682  0.8667  0.5635 -2.7482
  773SOL     OW 2317  50.161  50.745  49.353  0.2095 -0.0215 -0.1756
  773SOL    HW1 2318  50.245  50.761  49.402  0.7251 -1.7772 -1.3006
  773SOL    HW2 2319  50.090  50.785  49.411  1.2088  0.7822  0.9844
  774SOL     OW 2320  49.167  50.959  48.751 -0.1812  0.4477  0.0142
  774SOL    HW1 2321  49.088  50.939  48.700  0.6484  0.7448 -2.3147
  774SOL    HW2 2322  49.219  50.876  48.765 -1.5229  0.3683  0.8924
  775SOL     OW 2323  49.850  50.474  51.060  0.1257  0.0384 -0.0932
  775SOL    HW1 2324  49.839  50.566  51.091 -0.3331 -0.9916 -0.6608
  775SOL    HW2 2325  49.761  50.445  51.035 -0.3408  0.3199  1.3982
  776SOL     OW 2326  50.020  49.154  49.786  0.4045  0.6167 -0.0219
  776SOL    HW1 2327  50.097  49.166  49.846  0.8260  2.0148  0.0987
  776SOL    HW2 2328  50.021  49.243  49.741  0.4798  0.4482 -0.1573
  777SOL     OW 2329  51.241  49.010  49.264  0.2542  0.0531  0.7711
  777SOL    HW1 2330  51.301  48.969  49.327  1.2756  0.9594  0.0103
  777SOL    HW2 2331  51.275  49.102  49.247 -0.0304 -0.4593  1.9501
  778SOL     OW 2332  51.001  49.190  50.265  0.0528  0.2434  0.6597
  778SOL    HW1 2333  51.007  49.230  50.173  0.0653  0.7890 -0.3593
  778SOL    HW2 2334  51.055  49.108  50.251  1.3845  1.8195 -1.6980
  779SOL     OW 2335  51.385  50.588  50.911 -0.1391 -0.0618 -0.0589
  779SOL    HW1 2336  51.410  50.515  50.969  0.4629 -2.2245 -1.6423
  779SOL    HW2 2337  51.290  50.583  50.924  0.7288 -0.5931  1.1681
  780SOL     OW 2338  49.921  50.222  50.086  0.0298  0.4882 -0.1353
  780SOL    HW1 2339  49.867  50.169  50.025  2.3834  0.9933  2.4740
  780SOL    HW2 2340  49.963  50.149  50.135 -1.1387  0.6499 -1.3016
  781SOL     OW 2341  49.430  50.746  51.133 -0.5513  0.1218 -0.1826
  781SOL    HW1 2342  49.455  50.711  51.219 -3.2162 -1.3625 -0.4751
  781SOL    HW2 2343  49.417  50.841  51.146 -0.7926 -2.5047  1.4466
  782SOL     OW 2344  51.217  50.497  49.119  0.2850 -0.2904  0.2879
  782SOL    HW1 2345  51.133  50.476  49.068  0.8816  0.7545  0.4500
  782SOL    HW2 2346  51.233  50.413  49.163  0.5200 -1.9215 -1.6957
  783SOL     OW 2347  50.758  50.241  51.308  0.0092 -0.1248 -0.3352
  783SOL    HW1 2348  50.718  50.309  51.253  1.9747 -1.5688  1.7000
  783SOL    HW2 2349  50.810  50.191  51.244 -0.0394  2.2781 -2.2625
  784SOL     OW 2350  49.743  50.572  49.481 -0.5690 -0.2989  0.2980
  784SOL    HW1 2351  49.741  50.499  49.418  0.2010  1.1520  0.6775
  784SOL    HW2 2352  49.838  50.590  49.486 -3.2165 -0.7792 -0.3938
  785SOL     OW 2353  48.845  48.903  49.306  0.1926 -0.0499 -0.5345
  785SOL    HW1 2354  48.902  48.948  49.370 -1.1070  0.2831  0.4193
  785SOL    HW2 2355  48.765  48.942  49.333  2.2973 -1.0600 -1.7886
  786SOL     OW 2356  50.571  51.053  51.081 -0.6420  0.2211 -0.1674
  786SOL    HW1 2357  50.520  51.046  50.997  1.6390  2.0627  0.2055
  786SOL    HW2 2358  50.647  51.105  51.045 -2.1450 -1.1146  0.3057
  787SOL     OW 2359  49.863  48.473  50.250 -0.1532 -0.0927  0.0303
  787SOL    HW1 2360  49.893  48.449  50.159 -1.4694 -0.3059  0.3145
  787SOL    HW2 2361  49.847  48.569  50.242  1.3740 -1.1625 -0.9815
  788SOL     OW 2362  49.984  49.307  50.536 -0.2770  0.5944  0.0830
  788SOL    HW1 2363  49.976  49.322  50.440  0.8756  2.4481  0.7003
  788SOL    HW2 2364  49.902  49.354  50.568 -0.0128 -1.1529 -0.0612
  789SOL     OW 2365  50.816  50.741  50.460 -0.2099  0.2587 -0.0059
  789SOL    HW1 2366  50.798  50.767  50.365  0.6025  1.0419 -0.1267
  789SOL    HW2 2367  50.913  50.735  50.458 -1.5938  0.8898 -0.4786
  790SOL     OW 2368  48.794  51.293  50.189 -0.2202 -0.4266 -0.6349
  790SOL    HW1 2369  48.748  51.373  50.166 -1.0777  0.9737  0.6154
  790SOL    HW2 2370  48.730  51.229  50.155  0.7659  2.2629 -2.0990
  791SOL     OW 2371  48.522  49.073  50.300  0.1552  0.5055  0.3013
  791SOL    HW1 2372  48.508  48.978  50.298 -1.7621 -0.5038 -0.1793
  791SOL    HW2 2373  48.620  49.085  50.299 -1.8581 -0.3372  0.1274
  792SOL     OW 2374  51.090  50.760  50.497 -0.4087 -0.2651  0.0944
  792SOL    HW1 2375  51.175  50.811  50.494 -0.1646 -0.7955 -0.4149
  792SOL    HW2 2376  51.105  50.664  50.478  0.3918  0.7569 -0.4294
  793SOL     OW 2377  50.257  49.987  48.267  0.1726 -0.2294 -0.1432
  793SOL    HW1 2378  50.263  49.952  48.179 -0.8334 -0.0435 -1.4923
  793SOL    HW2 2379  50.160  50.003  48.269  1.3847  0.3052 -2.2644
  794SOL     OW 2380  49.345  50.758  49.846  0.4669  0.1338  0.3037
  794SOL    HW1 2381  49.310  50.708  49.768  1.2383  0.2495  0.8464
  794SOL    HW2 2382  49.267  50.799  49.889  0.0083 -0.3644 -1.3464
  795SOL     OW 2383  49.917  50.039  48.599  0.0957 -0.1035 -0.3628
  795SOL    HW1 2384  49.964  50.124  48.602  0.0776 -1.1940  0.3059
  795SOL    HW2 2385  49.986  49.990  48.546  1.4820  1.2817 -1.1103
  796SOL     OW 2386  50.917  50.298  49.412 -0.1862 -0.0035 -0.3117
  796SOL    HW1 2387  50.841  50.340  49.370  3.1846  1.0246  0.0897
  796SOL    HW2 2388  50.993  50.342  49.376 -0.1174 -0.7648  0.4086
  797SOL     OW 2389  50.317  50.491  48.699 -0.4252  0.4349  0.1863
  797SOL    HW1 2390  50.347  50.428  48.635 -2.8276  1.3368  2.0379
  797SOL    HW2 2391  50.249  50.447  48.751  1.1395 -0.0496  2.2996
  798SOL     OW 2392  48.444  49.325  49.798  0.0906  0.0565  0.4671
  798SOL    HW1 2393  48.513  49.277  49.849  0.0042 -0.7474 -0.4457
  798SOL    HW2 2394  48.471  49.299  49.707  0.6602  0.8715 -0.1823
  799SOL     OW 2395  49.395  50.067  48.626  0.2248 -0.0259 -0.0978
  799SOL    HW1 2396  49.351  50.126  48.559 -0.2899 -0.1259  0.5864
  799SOL    HW2 2397  49.318  50.020  48.669  0.8277  1.7076 -0.9007
  800SOL     OW 2398  49.727  49.338  49.516  0.1375  0.0034  0.2656
  800SOL    HW1 2399  49.652  49.277  49.502 -1.2689 -0.6339 -1.0556
  800SOL    HW2 2400  49.780  49.296  49.586 -1.6911 -0.3967 -2.0759
  801SOL     OW 2401  50.921  50.168  50.476  0.1683  0.0177  0.9668
  801SOL    HW1 2402  50.861  50.110  50.428  1.4108 -1.9406 -1.0490
  801SOL    HW2 2403  50.901  50.256  50.439 -0.2634 -2.2681  0.8679
  802SOL     OW 2404  50.626  49.565  50.686 -0.1257  0.1583 -0.1064
  802SOL    HW1 2405  50.634  49.643  50.747  4.2482  1.1547 -0.3797
  802SOL    HW2 2406  50.721  49.538  50.684 -0.4780  1.5586  0.7769
  803SOL     OW 2407  50.526  48.672  49.748 -0.1151 -0.0892  0.4448
  803SOL    HW1 2408  50.570  48.689  49.834 -0.1107  0.9645  0.4756
  803SOL    HW2 2409  50.460  48.745  49.750  0.6398 -0.2709  0.9407
  804SOL     OW 2410  50.488  49.972  50.342  0.0156 -0.3785  0.5452
  804SOL    HW1 2411  50.464  49.876  50.325  1.6636  0.2465  1.7729
  804SOL    HW2 2412  50.498  49.987  50.442 -0.2279  1.1929  2.6275
  805GLA    O00 2413  49.687  49.870  49.542 -0.2926 -0.0429 -0.1778
  805GLA    C01 2414  49.747  49.979  49.489  0.5273  0.7799 -0.7201
  805GLA    O02 2415  49.688  50.053  49.404 -0.0727  0.5606 -0.1536
  805GLA    C03 2416  49.889  50.000  49.543  0.1618 -0.2340 -0.6366
  805GLA    N04 2417  49.975  50.039  49.431  0.4519  0.2721 -0.5078
  805GLA    C05 2418  49.887  50.114  49.642  0.4554 -1.1134  0.0265
  805GLA    C06 2419  50.008  50.123  49.730 -0.0637 -0.7420 -0.3835
  805GLA    C07 2420  50.030  50.000  49.817  0.0893 -0.3343  0.1469
  805GLA    O08 2421  49.931  49.941  49.859 -0.3820  0.0248 -0.2808
  805GLA    O09 2422  50.155  49.981  49.854  0.6228  0.1783 -0.1367
  805GLA    H0A 2423  49.613  49.864  49.485  2.3983  0.1710  1.1423
  805GLA    H0B 2424  49.914  49.905  49.595  0.9109  0.6183  0.6107
  805GLA    H0C 2425  49.988  49.959  49.369  0.6751  2.3333 -1.3565
  805GLA    H0D 2426  49.907  50.083  49.366 -0.3381 -0.2921 -1.1198
  805GLA    H0E 2427  49.867  50.208  49.593 -1.0769  1.0699 -2.0465
  805GLA    H0F 2428  49.798  50.099  49.703 -1.5238  0.4030  1.1668
  805GLA    H0G 2429  49.996  50.216  49.798 -0.6724 -0.6138  0.8692
  805GLA    H0H 2430  50.093  50.137  49.666 -0.9177 -0.8338  2.1810
  805GLA    H0I 2431  50.162  49.890  49.949  4.3690 -0.3662  1.7115
  806GLM    O00 2432  49.997  49.372  50.010  0.0089 -0.6824  0.2898
  806GLM    C01 2433  50.059  49.412  50.127  0.3909 -0.0913 -0.2119
  806GLM    O02 2434  50.022  49.372  50.237 -0.3785  0.2386  0.4111
  806GLM    C03 2435  50.191  49.496  50.107 -0.0607  0.0788  0.4790
  806GLM    N04 2436  50.197  49.544  49.971  0.1238 -0.6421 -0.4759
  806GLM    C05 2437  50.194  49.610  50.210 -0.4564  0.3809 -0.6817
  806GLM    C06 2438  50.305  49.718  50.191 -0.2246 -0.3049 -0.1548
  806GLM    C07 2439  50.280  49.816  50.077  0.3883 -0.5421 -0.8853
  806GLM    O08 2440  50.157  49.824  50.038 -0.5302  0.6167 -0.0098
  806GLM    O09 2441  50.381  49.873  50.034  0.1029 -0.2582  0.2336
  806GLM    H0A 2442  49.938  49.305  50.028  2.6972  2.4607 -0.8800
  806GLM    H0B 2443  50.276  49.428  50.137 -0.3130 -0.0298  2.6755
  806GLM    H0C 2444  50.148  49.480  49.907 -0.7881 -1.2575  0.1742
  806GLM    H0D 2445  50.137  49.627  49.959 -2.4698 -3.1297 -1.4871
  806GLM    H0E 2446  50.093  49.660  50.212 -2.7550  1.9762 -1.2250
  806GLM    H0F 2447  50.217  49.571  50.309 -0.0130  2.4725  0.8346
  806GLM    H0G 2448  50.312  49.779  50.286 -0.0031 -0.7545  0.2911
  806GLM    H0H 2449  50.407  49.669  50.177 -0.6913 -1.8487  0.7473
  807NA      NA 2450  50.086  50.159  51.203 -0.0259  0.3290  0.1002
 100.00000 100.00000 100.00000
