define = -DFLEXIBLE

; md-nvt.mdp - used as input into grompp to generate nma-nvt.tpr
integrator  = md    ; can't use md-vv because PLUMED is not compatible with GROMACS new modular simulator which is used by md-vv
dt          = 0.0005 ; 0.5 fs time-step
nsteps      = 100   ;

; Set output frequency to each step
nstxout                  = 1 ; Coordinates to trr
nstlog                   = 1 ; Energies to md.log
nstenergy                = 1 ; Energies to ener.edr
nstfout                  = 0 ; force recorded every step to trr
nstvout                  = 1 ; velocity recorded every step to trr

; Set pbd cut-offs
pbc = xyz
rlist               = 4 ; NB-search cut-off
coulombtype     = cut-off ; Treatment of long range electrostatic interactions
rcoulomb	    = 4 ; Short-range electrostatic cut-off
rvdw		    = 4 ; Short-range Van der Waals cut-off

;Temperature coupling options
tcoupl                   = nose-hoover
nsttcouple               = 10
tc-grps                  = system
tau-t                    = 0.1
ref-t                    = 300
nh-chain-length          = 5
;print-nose-hoover-chain-variables = yes ; do not turn this on when using md-vv integrator

; Pull code for constraint
pull = no

Pcoupl			=  no

; GENERATE VELOCITIES FOR STARTUP RUN
gen-vel                    = yes
gen-temp                   = 300

; pyscf QMMM parameters
qmmm-pyscf-active              = True;
qmmm-pyscf-qmgroup             = LBHB ; Index group of QM atoms
qmmm-pyscf-qmmethod            = PBE    ; Method to use
qmmm-pyscf-qmcharge            = -1      ; Charge of QM system
qmmm-pyscf-qmmultiplicity      = 1      ; Multiplicity of QM system

